<?xml version="1.0" encoding="ISO-8859-1"?>
<modeling>
 <generator>
  <i name="program" type="string">vasp</i>
  <i name="version" type="string">4.6.38 </i>
  <i name="subversion" type="string">12Jan11 gamma-only parallel</i>
  <i name="platform" type="string">LinuxIFC</i>
  <i name="date" type="string">2016 09 05</i>
  <i name="time" type="string">17:35:16</i>
 </generator>
 <incar>
  <i type="string" name="SYSTEM"> a_1_1_1</i>
  <i type="string" name="PREC">normal</i>
  <i type="string" name="GGA"> 91</i>
  <i type="string" name="ALGO"> V</i>
  <i type="logical" name="LSORBIT"> F  </i>
  <i type="logical" name="LNONCOLLINEAR"> F  </i>
  <i type="int" name="ISPIN">     2</i>
  <i type="int" name="IMIX">     4</i>
  <i type="int" name="MAXMIX">   -45</i>
  <i name="WC">   1000.00000000</i>
  <i type="int" name="INIMIX">     1</i>
  <i type="int" name="MIXPRE">     1</i>
  <i type="int" name="ICHARG">     0</i>
  <i name="EDIFF">      0.00010000</i>
  <i name="EDIFFG">     -0.03000000</i>
  <i type="int" name="IBRION">     2</i>
  <i type="int" name="NFREE">     3</i>
  <i type="int" name="NSW">   200</i>
  <i name="ENCUT">    450.00000000</i>
  <i name="POTIM">      0.50000000</i>
  <i type="string" name="LREAL"> A</i>
  <i type="int" name="ISMEAR">     1</i>
  <i name="SIGMA">      0.10000000</i>
  <i type="logical" name="LVTOT"> T  </i>
  <i type="logical" name="LORBIT"> F  </i>
  <i type="logical" name="LAECHG"> T  </i>
 </incar>
 <kpoints>
  <varray name="kpointlist" >
   <v>       0.00000000       0.00000000       0.00000000 </v>
  </varray>
  <varray name="weights" >
   <v>       1.00000000 </v>
  </varray>
 </kpoints>
 <parameters>
  <separator name="general" >
   <i type="string" name="SYSTEM">a_1_1_1</i>
   <i type="logical" name="LCOMPAT"> F  </i>
  </separator>
  <separator name="electronic" >
   <i type="string" name="PREC">normal</i>
   <i name="ENMAX">    450.00000000</i>
   <i name="ENAUG">    644.87300000</i>
   <i name="EDIFF">      0.00010000</i>
   <i type="int" name="IALGO">    48</i>
   <i type="int" name="IWAVPR">    11</i>
   <i type="int" name="NBANDS">   993</i>
   <i name="NELECT">   1524.00000000</i>
   <separator name="electronic smearing" >
    <i type="int" name="ISMEAR">     1</i>
    <i name="SIGMA">      0.10000000</i>
   </separator>
   <separator name="electronic projectors" >
    <i type="logical" name="LREAL"> T  </i>
    <v name="ROPT">     -0.00050000     -0.00050000     -0.00050000     -0.00050000     -0.00050000     -0.00050000</v>
    <i type="int" name="LMAXPAW">  -100</i>
    <i type="int" name="LMAXMIX">     2</i>
   </separator>
   <separator name="electronic startup" >
    <i type="int" name="ISTART">     0</i>
    <i type="int" name="ICHARG">     2</i>
    <i type="int" name="INIWAV">     1</i>
   </separator>
   <separator name="electronic spin" >
    <i type="int" name="ISPIN">     2</i>
    <i type="logical" name="LNONCOLLINEAR"> F  </i>
    <v name="MAGMOM">      1.00000000      1.00000000      1.00000000      1.00000000      1.00000000      1.00000000      1.00000000      1.00000000      1.00000000      1.00000000      1.00000000      1.00000000      1.00000000      1.00000000      1.00000000      1.00000000      1.00000000      1.00000000      1.00000000      1.00000000
      1.00000000      1.00000000      1.00000000      1.00000000      1.00000000      1.00000000      1.00000000      1.00000000      1.00000000      1.00000000      1.00000000      1.00000000      1.00000000      1.00000000      1.00000000      1.00000000      1.00000000      1.00000000      1.00000000      1.00000000
      1.00000000      1.00000000      1.00000000      1.00000000      1.00000000      1.00000000      1.00000000      1.00000000      1.00000000      1.00000000      1.00000000      1.00000000      1.00000000      1.00000000      1.00000000      1.00000000      1.00000000      1.00000000      1.00000000      1.00000000
      1.00000000      1.00000000      1.00000000      1.00000000      1.00000000      1.00000000      1.00000000      1.00000000      1.00000000      1.00000000      1.00000000      1.00000000      1.00000000      1.00000000      1.00000000      1.00000000      1.00000000      1.00000000      1.00000000      1.00000000
      1.00000000      1.00000000      1.00000000      1.00000000      1.00000000      1.00000000      1.00000000      1.00000000      1.00000000      1.00000000      1.00000000      1.00000000      1.00000000      1.00000000      1.00000000      1.00000000      1.00000000      1.00000000      1.00000000      1.00000000
      1.00000000      1.00000000      1.00000000      1.00000000      1.00000000      1.00000000      1.00000000      1.00000000      1.00000000      1.00000000      1.00000000      1.00000000      1.00000000      1.00000000      1.00000000      1.00000000      1.00000000      1.00000000      1.00000000      1.00000000
      1.00000000      1.00000000      1.00000000      1.00000000      1.00000000      1.00000000      1.00000000      1.00000000      1.00000000      1.00000000      1.00000000      1.00000000      1.00000000      1.00000000      1.00000000      1.00000000      1.00000000      1.00000000      1.00000000      1.00000000
      1.00000000      1.00000000      1.00000000      1.00000000      1.00000000      1.00000000      1.00000000      1.00000000      1.00000000      1.00000000      1.00000000      1.00000000      1.00000000      1.00000000      1.00000000      1.00000000      1.00000000</v>
    <i name="NUPDOWN">     -1.00000000</i>
    <i type="logical" name="LSORBIT"> F  </i>
    <v name="SAXIS">      0.00000000      0.00000000      1.00000000</v>
    <i type="logical" name="LSPIRAL"> F  </i>
    <v name="QSPIRAL">      0.00000000      0.00000000      0.00000000</v>
    <i type="logical" name="LZEROZ"> F  </i>
   </separator>
   <separator name="electronic exchange-correlation" >
    <i type="string" name="GGA">91</i>
    <i type="int" name="VOSKOWN">     0</i>
    <i type="logical" name="LASPH"> F  </i>
    <i type="logical" name="LMETAGGA"> F  </i>
    <i type="string" name="GGA2">--</i>
   </separator>
   <separator name="electronic convergence" >
    <i type="int" name="NELM">    60</i>
    <i type="int" name="NELMDL">     0</i>
    <i type="int" name="NELMIN">     2</i>
    <i name="ENINI">    450.00000000</i>
    <separator name="electronic convergence detail" >
     <i type="logical" name="LDIAG"> T  </i>
     <i name="WEIMIN">      0.00100000</i>
     <i name="EBREAK">      0.00000003</i>
     <i name="DEPER">      0.30000000</i>
     <i type="int" name="NRMM">     4</i>
     <i name="TIME">      0.10000000</i>
    </separator>
   </separator>
   <separator name="electronic mixer" >
    <i name="AMIX">      0.40000000</i>
    <i name="BMIX">      1.00000000</i>
    <i name="AMIN">      0.10000000</i>
    <i name="AMIX_MAG">      1.60000000</i>
    <i name="BMIX_MAG">      1.00000000</i>
    <separator name="electronic mixer details" >
     <i type="int" name="IMIX">     4</i>
     <i type="int" name="MAXMIX">   -45</i>
     <i name="WC">   1000.00000000</i>
     <i type="int" name="INIMIX">     1</i>
     <i type="int" name="MIXPRE">     1</i>
     <i type="int" name="MREMOVE">     5</i>
    </separator>
   </separator>
   <separator name="electronic dipolcorrection" >
    <i type="int" name="IDIPOL">     0</i>
    <i type="logical" name="LDIPOL"> F  </i>
    <v name="DIPOL">   -100.00000000</v>
    <i name="EFIELD">      0.00000000</i>
   </separator>
  </separator>
  <separator name="grids" >
   <i type="int" name="NGX">    64</i>
   <i type="int" name="NGY">    70</i>
   <i type="int" name="NGZ">   160</i>
   <i type="int" name="NGXF">   128</i>
   <i type="int" name="NGYF">   140</i>
   <i type="int" name="NGZF">   320</i>
   <i type="logical" name="ADDGRID"> F  </i>
  </separator>
  <separator name="ionic" >
   <i type="int" name="NSW">   200</i>
   <i type="int" name="IBRION">     2</i>
   <i type="int" name="ISIF">     2</i>
   <i name="PSTRESS">      0.00000000</i>
   <i name="EDIFFG">     -0.03000000</i>
   <i type="int" name="NFREE">     3</i>
   <i name="POTIM">      0.50000000</i>
   <i name="SMASS">     -3.00000000</i>
  </separator>
  <separator name="ionic md" >
   <i name="TEBEG">      0.00010000</i>
   <i name="TEEND">      0.00010000</i>
   <i type="int" name="NBLOCK">     1</i>
   <i type="int" name="KBLOCK">   200</i>
   <i type="int" name="NPACO">   256</i>
   <i name="APACO">     16.00000000</i>
  </separator>
  <separator name="symmetry" >
   <i type="int" name="ISYM">     2</i>
   <i name="SYMPREC">      0.00001000</i>
  </separator>
  <separator name="dos" >
   <i type="logical" name="LORBIT"> F  </i>
   <v name="RWIGS">     -1.00000000     -1.00000000     -1.00000000     -1.00000000     -1.00000000     -1.00000000</v>
   <i type="int" name="NEDOS">   301</i>
   <i name="EMIN">     10.00000000</i>
   <i name="EMAX">    -10.00000000</i>
  </separator>
  <separator name="writing" >
   <i type="int" name="NWRITE">     2</i>
   <i type="logical" name="LWAVE"> T  </i>
   <i type="logical" name="LCHARG"> T  </i>
   <i type="logical" name="LPARD"> F  </i>
   <i type="logical" name="LVTOT"> T  </i>
   <i type="logical" name="LELF"> F  </i>
   <i type="logical" name="LOPTICS"> F  </i>
   <v name="STM">      0.00000000      0.00000000      0.00000000      0.00000000      0.00000000</v>
  </separator>
  <separator name="performance" >
   <i type="int" name="NPAR">    12</i>
   <i type="int" name="NSIM">     4</i>
   <i type="int" name="NBLK">   256</i>
   <i type="logical" name="LPLANE"> T  </i>
   <i type="logical" name="LCRITICAL_MEM"> F  </i>
   <i type="logical" name="LSCALAPACK"> F  </i>
   <i type="logical" name="LSCALU"> F  </i>
   <i type="logical" name="LASYNC"> F  </i>
  </separator>
  <separator name="miscellaneous" >
   <i type="int" name="IDIOT">     3</i>
   <i type="logical" name="LMUSIC"> F  </i>
   <v name="POMASS">     55.84700000     95.94000000     30.97400000     12.01100000     16.00000000      1.00000000</v>
   <i type="logical" name="LCORR"> T  </i>
  </separator>
  <i type="logical" name="LREAL_COMPAT"> F  </i>
  <i type="logical" name="GGA_COMPAT"> T  </i>
  <i type="logical" name="LBERRY"> F  </i>
  <i type="int" name="ICORELEVEL">     0</i>
  <i type="logical" name="LDAU"> F  </i>
  <i type="int" name="I_CONSTRAINED_M">     0</i>
 </parameters>
 <atominfo>
  <atoms>     157</atoms>
  <types>       6</types>
  <array name="atoms" >
   <dimension dim="1">ion</dimension>
   <field type="string">element</field>
   <field type="int">atomtype</field>
   <set>
    <rc><c>Fe</c><c>   1</c></rc>
    <rc><c>Fe</c><c>   1</c></rc>
    <rc><c>Fe</c><c>   1</c></rc>
    <rc><c>Fe</c><c>   1</c></rc>
    <rc><c>Fe</c><c>   1</c></rc>
    <rc><c>Fe</c><c>   1</c></rc>
    <rc><c>Fe</c><c>   1</c></rc>
    <rc><c>Fe</c><c>   1</c></rc>
    <rc><c>Fe</c><c>   1</c></rc>
    <rc><c>Fe</c><c>   1</c></rc>
    <rc><c>Fe</c><c>   1</c></rc>
    <rc><c>Fe</c><c>   1</c></rc>
    <rc><c>Fe</c><c>   1</c></rc>
    <rc><c>Fe</c><c>   1</c></rc>
    <rc><c>Fe</c><c>   1</c></rc>
    <rc><c>Fe</c><c>   1</c></rc>
    <rc><c>Fe</c><c>   1</c></rc>
    <rc><c>Fe</c><c>   1</c></rc>
    <rc><c>Fe</c><c>   1</c></rc>
    <rc><c>Fe</c><c>   1</c></rc>
    <rc><c>Fe</c><c>   1</c></rc>
    <rc><c>Fe</c><c>   1</c></rc>
    <rc><c>Fe</c><c>   1</c></rc>
    <rc><c>Fe</c><c>   1</c></rc>
    <rc><c>Fe</c><c>   1</c></rc>
    <rc><c>Fe</c><c>   1</c></rc>
    <rc><c>Fe</c><c>   1</c></rc>
    <rc><c>Fe</c><c>   1</c></rc>
    <rc><c>Fe</c><c>   1</c></rc>
    <rc><c>Fe</c><c>   1</c></rc>
    <rc><c>Fe</c><c>   1</c></rc>
    <rc><c>Fe</c><c>   1</c></rc>
    <rc><c>Fe</c><c>   1</c></rc>
    <rc><c>Fe</c><c>   1</c></rc>
    <rc><c>Fe</c><c>   1</c></rc>
    <rc><c>Fe</c><c>   1</c></rc>
    <rc><c>Fe</c><c>   1</c></rc>
    <rc><c>Fe</c><c>   1</c></rc>
    <rc><c>Fe</c><c>   1</c></rc>
    <rc><c>Fe</c><c>   1</c></rc>
    <rc><c>Fe</c><c>   1</c></rc>
    <rc><c>Fe</c><c>   1</c></rc>
    <rc><c>Fe</c><c>   1</c></rc>
    <rc><c>Fe</c><c>   1</c></rc>
    <rc><c>Fe</c><c>   1</c></rc>
    <rc><c>Fe</c><c>   1</c></rc>
    <rc><c>Fe</c><c>   1</c></rc>
    <rc><c>Fe</c><c>   1</c></rc>
    <rc><c>Mo</c><c>   2</c></rc>
    <rc><c>Mo</c><c>   2</c></rc>
    <rc><c>Mo</c><c>   2</c></rc>
    <rc><c>Mo</c><c>   2</c></rc>
    <rc><c>Mo</c><c>   2</c></rc>
    <rc><c>Mo</c><c>   2</c></rc>
    <rc><c>Mo</c><c>   2</c></rc>
    <rc><c>Mo</c><c>   2</c></rc>
    <rc><c>Mo</c><c>   2</c></rc>
    <rc><c>Mo</c><c>   2</c></rc>
    <rc><c>Mo</c><c>   2</c></rc>
    <rc><c>Mo</c><c>   2</c></rc>
    <rc><c>Mo</c><c>   2</c></rc>
    <rc><c>Mo</c><c>   2</c></rc>
    <rc><c>Mo</c><c>   2</c></rc>
    <rc><c>Mo</c><c>   2</c></rc>
    <rc><c>Mo</c><c>   2</c></rc>
    <rc><c>Mo</c><c>   2</c></rc>
    <rc><c>Mo</c><c>   2</c></rc>
    <rc><c>Mo</c><c>   2</c></rc>
    <rc><c>Mo</c><c>   2</c></rc>
    <rc><c>Mo</c><c>   2</c></rc>
    <rc><c>Mo</c><c>   2</c></rc>
    <rc><c>Mo</c><c>   2</c></rc>
    <rc><c>Mo</c><c>   2</c></rc>
    <rc><c>Mo</c><c>   2</c></rc>
    <rc><c>Mo</c><c>   2</c></rc>
    <rc><c>Mo</c><c>   2</c></rc>
    <rc><c>Mo</c><c>   2</c></rc>
    <rc><c>Mo</c><c>   2</c></rc>
    <rc><c>Mo</c><c>   2</c></rc>
    <rc><c>Mo</c><c>   2</c></rc>
    <rc><c>Mo</c><c>   2</c></rc>
    <rc><c>Mo</c><c>   2</c></rc>
    <rc><c>Mo</c><c>   2</c></rc>
    <rc><c>Mo</c><c>   2</c></rc>
    <rc><c>Mo</c><c>   2</c></rc>
    <rc><c>Mo</c><c>   2</c></rc>
    <rc><c>Mo</c><c>   2</c></rc>
    <rc><c>Mo</c><c>   2</c></rc>
    <rc><c>Mo</c><c>   2</c></rc>
    <rc><c>Mo</c><c>   2</c></rc>
    <rc><c>Mo</c><c>   2</c></rc>
    <rc><c>Mo</c><c>   2</c></rc>
    <rc><c>Mo</c><c>   2</c></rc>
    <rc><c>Mo</c><c>   2</c></rc>
    <rc><c>Mo</c><c>   2</c></rc>
    <rc><c>Mo</c><c>   2</c></rc>
    <rc><c>P </c><c>   3</c></rc>
    <rc><c>P </c><c>   3</c></rc>
    <rc><c>P </c><c>   3</c></rc>
    <rc><c>P </c><c>   3</c></rc>
    <rc><c>P </c><c>   3</c></rc>
    <rc><c>P </c><c>   3</c></rc>
    <rc><c>P </c><c>   3</c></rc>
    <rc><c>P </c><c>   3</c></rc>
    <rc><c>P </c><c>   3</c></rc>
    <rc><c>P </c><c>   3</c></rc>
    <rc><c>P </c><c>   3</c></rc>
    <rc><c>P </c><c>   3</c></rc>
    <rc><c>P </c><c>   3</c></rc>
    <rc><c>P </c><c>   3</c></rc>
    <rc><c>P </c><c>   3</c></rc>
    <rc><c>P </c><c>   3</c></rc>
    <rc><c>P </c><c>   3</c></rc>
    <rc><c>P </c><c>   3</c></rc>
    <rc><c>P </c><c>   3</c></rc>
    <rc><c>P </c><c>   3</c></rc>
    <rc><c>P </c><c>   3</c></rc>
    <rc><c>P </c><c>   3</c></rc>
    <rc><c>P </c><c>   3</c></rc>
    <rc><c>P </c><c>   3</c></rc>
    <rc><c>P </c><c>   3</c></rc>
    <rc><c>P </c><c>   3</c></rc>
    <rc><c>P </c><c>   3</c></rc>
    <rc><c>P </c><c>   3</c></rc>
    <rc><c>P </c><c>   3</c></rc>
    <rc><c>P </c><c>   3</c></rc>
    <rc><c>P </c><c>   3</c></rc>
    <rc><c>P </c><c>   3</c></rc>
    <rc><c>P </c><c>   3</c></rc>
    <rc><c>P </c><c>   3</c></rc>
    <rc><c>P </c><c>   3</c></rc>
    <rc><c>P </c><c>   3</c></rc>
    <rc><c>P </c><c>   3</c></rc>
    <rc><c>P </c><c>   3</c></rc>
    <rc><c>P </c><c>   3</c></rc>
    <rc><c>P </c><c>   3</c></rc>
    <rc><c>P </c><c>   3</c></rc>
    <rc><c>P </c><c>   3</c></rc>
    <rc><c>P </c><c>   3</c></rc>
    <rc><c>P </c><c>   3</c></rc>
    <rc><c>P </c><c>   3</c></rc>
    <rc><c>P </c><c>   3</c></rc>
    <rc><c>P </c><c>   3</c></rc>
    <rc><c>P </c><c>   3</c></rc>
    <rc><c>C </c><c>   4</c></rc>
    <rc><c>C </c><c>   4</c></rc>
    <rc><c>C </c><c>   4</c></rc>
    <rc><c>C </c><c>   4</c></rc>
    <rc><c>C </c><c>   4</c></rc>
    <rc><c>C </c><c>   4</c></rc>
    <rc><c>O </c><c>   5</c></rc>
    <rc><c>H </c><c>   6</c></rc>
    <rc><c>H </c><c>   6</c></rc>
    <rc><c>H </c><c>   6</c></rc>
    <rc><c>H </c><c>   6</c></rc>
    <rc><c>H </c><c>   6</c></rc>
    <rc><c>H </c><c>   6</c></rc>
   </set>
  </array>
  <array name="atomtypes" >
   <dimension dim="1">type</dimension>
   <field type="int">atomspertype</field>
   <field type="string">element</field>
   <field>mass</field>
   <field>valence</field>
   <field type="string">pseudopotential</field>
   <set>
    <rc><c>  48</c><c>Fe</c><c>     55.84700000</c><c>     14.00000000</c><c> PAW_GGA Fe_pv 06May1998                </c></rc>
    <rc><c>  48</c><c>Mo</c><c>     95.94000000</c><c>     12.00000000</c><c> PAW_GGA Mo_pv 08Jan2002                </c></rc>
    <rc><c>  48</c><c>P </c><c>     30.97400000</c><c>      5.00000000</c><c> PAW_GGA P 21Jan2003                    </c></rc>
    <rc><c>   6</c><c>C </c><c>     12.01100000</c><c>      4.00000000</c><c> PAW_GGA C 05Jan2001                    </c></rc>
    <rc><c>   1</c><c>O </c><c>     16.00000000</c><c>      6.00000000</c><c> PAW_GGA O 05Jan2001                    </c></rc>
    <rc><c>   6</c><c>H </c><c>      1.00000000</c><c>      1.00000000</c><c> PAW_GGA H 07Jul1998                    </c></rc>
   </set>
  </array>
 </atominfo>
 <structure name="initialpos" >
  <crystal>
   <varray name="basis" >
    <v>      11.87300000       0.00000000       0.00000000 </v>
    <v>       0.00000000      12.95900000       0.00000000 </v>
    <v>       0.00000000       0.00000000      29.43000000 </v>
   </varray>
   <i name="volume">   4528.16475201</i>
   <varray name="rec_basis" >
    <v>       0.08422471       0.00000000       0.00000000 </v>
    <v>       0.00000000       0.07716645       0.00000000 </v>
    <v>       0.00000000       0.00000000       0.03397893 </v>
   </varray>
  </crystal>
  <varray name="positions" >
   <v>       0.47390971       0.10515549       0.13229086 </v>
   <v>       0.23100985       0.25117293       0.01686646 </v>
   <v>       0.99213173       0.12918512       0.12510330 </v>
   <v>       0.73737893       0.22068755       0.04102005 </v>
   <v>       0.41529689       0.39294930       0.01886578 </v>
   <v>       0.24340942       0.44306351       0.14081651 </v>
   <v>       0.88179146       0.37638012       0.04600340 </v>
   <v>       0.62407226       0.45705224       0.12864526 </v>
   <v>       0.47387097       0.60516244       0.13229834 </v>
   <v>       0.23102417       0.75119145       0.01685729 </v>
   <v>       0.99212078       0.62922139       0.12510024 </v>
   <v>       0.73736545       0.72069141       0.04102175 </v>
   <v>       0.41526489       0.89297168       0.01885321 </v>
   <v>       0.24337657       0.94305811       0.14081006 </v>
   <v>       0.88179399       0.87636778       0.04599966 </v>
   <v>       0.62403773       0.95704375       0.12864628 </v>
   <v>       0.42694180       0.06899761       0.27432246 </v>
   <v>       0.47317864       0.11648738       0.40091064 </v>
   <v>       0.25233471       0.24174396       0.17310703 </v>
   <v>       0.14521519       0.18589320       0.32989229 </v>
   <v>       0.88512592       0.11712709       0.27455793 </v>
   <v>       0.03071844       0.09713635       0.39288753 </v>
   <v>       0.74756675       0.19571340       0.19800306 </v>
   <v>       0.75107976       0.21023150       0.33216072 </v>
   <v>       0.45788091       0.37186048       0.17246041 </v>
   <v>       0.42908448       0.39637241       0.31722868 </v>
   <v>       0.24059210       0.44466163       0.26851036 </v>
   <v>       0.22731155       0.46160583       0.40818485 </v>
   <v>       0.92950476       0.32265453       0.18963846 </v>
   <v>       0.89474101       0.36189984       0.33547774 </v>
   <v>       0.61068306       0.44831314       0.26907917 </v>
   <v>       0.63185463       0.47698356       0.40327625 </v>
   <v>       0.42551588       0.57001620       0.27542304 </v>
   <v>       0.47036469       0.61469249       0.40465613 </v>
   <v>       0.24697381       0.74455822       0.17144037 </v>
   <v>       0.15132822       0.69037194       0.32729290 </v>
   <v>       0.88329740       0.61693418       0.27391233 </v>
   <v>       0.04724333       0.59468323       0.39191199 </v>
   <v>       0.74964794       0.69475654       0.19815732 </v>
   <v>       0.74517308       0.71185585       0.33117193 </v>
   <v>       0.45581066       0.87076703       0.17242270 </v>
   <v>       0.41867515       0.88648352       0.31633775 </v>
   <v>       0.23906342       0.94410989       0.26815664 </v>
   <v>       0.21336899       0.96200015       0.40383962 </v>
   <v>       0.93203992       0.82294081       0.18953075 </v>
   <v>       0.89305651       0.85845436       0.33582263 </v>
   <v>       0.61039586       0.94646732       0.26784268 </v>
   <v>       0.63065864       0.97728683       0.40268807 </v>
   <v>       0.30279542       0.06524963       0.06150085 </v>
   <v>       0.05801314       0.05105564       0.03691981 </v>
   <v>       0.81271962       0.02398102       0.08186714 </v>
   <v>       0.58452202       0.07464156       0.05047740 </v>
   <v>       0.31970016       0.26385832       0.10145158 </v>
   <v>       0.03749684       0.31113435       0.09821101 </v>
   <v>       0.77181925       0.31001312       0.12703772 </v>
   <v>       0.54676998       0.28165213       0.08764084 </v>
   <v>       0.30282490       0.56523497       0.06150561 </v>
   <v>       0.05803841       0.55106413       0.03692491 </v>
   <v>       0.81270951       0.52400571       0.08186986 </v>
   <v>       0.58449255       0.57462844       0.05047978 </v>
   <v>       0.31969932       0.76384906       0.10144580 </v>
   <v>       0.03750274       0.81111583       0.09819028 </v>
   <v>       0.77181504       0.80999306       0.12703772 </v>
   <v>       0.54675735       0.78164673       0.08763235 </v>
   <v>       0.30391308       0.05132263       0.19856473 </v>
   <v>       0.30125495       0.05260437       0.34401053 </v>
   <v>       0.04522867       0.00813875       0.21463405 </v>
   <v>       0.06500969       0.99228799       0.32334455 </v>
   <v>       0.79463573       0.99139285       0.20069079 </v>
   <v>       0.82818664       0.04982560       0.36614509 </v>
   <v>       0.56300430       0.06168223       0.20352633 </v>
   <v>       0.59070580       0.07057721       0.33290112 </v>
   <v>       0.29918639       0.24632456       0.26457085 </v>
   <v>       0.32087425       0.27422486       0.38046993 </v>
   <v>       0.04195486       0.29724053       0.26669351 </v>
   <v>       0.08252758       0.30450806       0.39259667 </v>
   <v>       0.78311800       0.31270314       0.25988073 </v>
   <v>       0.77606671       0.32993904       0.40244886 </v>
   <v>       0.54960077       0.24835327       0.25484132 </v>
   <v>       0.56734018       0.29515549       0.36937717 </v>
   <v>       0.30445886       0.55277336       0.19867448 </v>
   <v>       0.29559252       0.55291226       0.34672239 </v>
   <v>       0.04665544       0.50659850       0.21358648 </v>
   <v>       0.06197423       0.49604059       0.32138906 </v>
   <v>       0.79388865       0.49209507       0.19984302 </v>
   <v>       0.82798534       0.55436608       0.36608733 </v>
   <v>       0.56337236       0.56147234       0.20411145 </v>
   <v>       0.58188748       0.57444710       0.33449915 </v>
   <v>       0.30071001       0.74840265       0.25790078 </v>
   <v>       0.32160364       0.77085886       0.38575569 </v>
   <v>       0.04209888       0.79863107       0.26644207 </v>
   <v>       0.08288385       0.79368933       0.39234828 </v>
   <v>       0.78394845       0.81282969       0.25909854 </v>
   <v>       0.77203487       0.82975307       0.40269079 </v>
   <v>       0.54996799       0.74710471       0.25447163 </v>
   <v>       0.56237851       0.79175168       0.37176690 </v>
   <v>       0.42167270       0.21022455       0.02453143 </v>
   <v>       0.18213004       0.11937418       0.12960584 </v>
   <v>       0.91724164       0.18716799       0.05511111 </v>
   <v>       0.66061147       0.14220850       0.13439314 </v>
   <v>       0.43630843       0.44581835       0.10316684 </v>
   <v>       0.18883012       0.39784628       0.05437139 </v>
   <v>       0.94139560       0.44786558       0.14227523 </v>
   <v>       0.68446391       0.39242225       0.03587598 </v>
   <v>       0.42168197       0.71024307       0.02453857 </v>
   <v>       0.18216036       0.61936569       0.12960483 </v>
   <v>       0.91725175       0.68714175       0.05511859 </v>
   <v>       0.66059715       0.64221931       0.13439585 </v>
   <v>       0.43629327       0.94584150       0.10315936 </v>
   <v>       0.18881664       0.89785169       0.05436901 </v>
   <v>       0.94141919       0.94785477       0.14226096 </v>
   <v>       0.68443696       0.89243151       0.03588107 </v>
   <v>       0.42773267       0.20774057       0.18995990 </v>
   <v>       0.43751200       0.19892893       0.32349915 </v>
   <v>       0.17299503       0.10373408       0.26441998 </v>
   <v>       0.20287122       0.14365152       0.41272137 </v>
   <v>       0.93860187       0.16489158       0.20519062 </v>
   <v>       0.95252169       0.19786558       0.33723887 </v>
   <v>       0.70288385       0.11276024       0.26529358 </v>
   <v>       0.67992672       0.15417007       0.40723479 </v>
   <v>       0.42284427       0.41908018       0.24269181 </v>
   <v>       0.43604060       0.43728683       0.39701903 </v>
   <v>       0.17349196       0.36413381       0.20712029 </v>
   <v>       0.19781184       0.35491936       0.32827761 </v>
   <v>       0.91176703       0.44884482       0.26818994 </v>
   <v>       0.95693422       0.44199784       0.40439789 </v>
   <v>       0.64637497       0.35927464       0.19345973 </v>
   <v>       0.71345321       0.41136585       0.33121135 </v>
   <v>       0.42690390       0.70693649       0.18856167 </v>
   <v>       0.42800809       0.70292152       0.32301835 </v>
   <v>       0.17589405       0.60358052       0.26352531 </v>
   <v>       0.21220753       0.64030249       0.42165206 </v>
   <v>       0.94114883       0.66516861       0.20544105 </v>
   <v>       0.95657458       0.69519407       0.33598097 </v>
   <v>       0.70046239       0.61142912       0.26633062 </v>
   <v>       0.67879643       0.65305656       0.40806626 </v>
   <v>       0.42446307       0.91879157       0.24256677 </v>
   <v>       0.43478481       0.93883324       0.39498879 </v>
   <v>       0.16870631       0.86576125       0.20614203 </v>
   <v>       0.20675230       0.85506212       0.32934591 </v>
   <v>       0.91198012       0.94994444       0.27048522 </v>
   <v>       0.96010865       0.93540242       0.40410126 </v>
   <v>       0.64567001       0.85870901       0.19304213 </v>
   <v>       0.71025604       0.90369164       0.33037445 </v>
   <v>       0.38733260       0.62854155       0.49026877 </v>
   <v>       0.50298324       0.64745505       0.49127863 </v>
   <v>       0.57843679       0.56457211       0.49104315 </v>
   <v>       0.53829866       0.46319701       0.48932892 </v>
   <v>       0.42257475       0.44545027       0.48853721 </v>
   <v>       0.34640782       0.52762250       0.48913184 </v>
   <v>       0.69314664       0.57843661       0.49277744 </v>
   <v>       0.32898341       0.69340227       0.49059055 </v>
   <v>       0.53491957       0.72650590       0.49231634 </v>
   <v>       0.59853954       0.39979319       0.48906762 </v>
   <v>       0.39150594       0.36636855       0.48751818 </v>
   <v>       0.25612229       0.51321475       0.48839823 </v>
   <v>       0.70927819       0.65194691       0.49473361 </v>
  </varray>
  <varray name="selective"  type="logical" >
   <v type="logical" >  F F F</v>
   <v type="logical" >  F F F</v>
   <v type="logical" >  F F F</v>
   <v type="logical" >  F F F</v>
   <v type="logical" >  F F F</v>
   <v type="logical" >  F F F</v>
   <v type="logical" >  F F F</v>
   <v type="logical" >  F F F</v>
   <v type="logical" >  F F F</v>
   <v type="logical" >  F F F</v>
   <v type="logical" >  F F F</v>
   <v type="logical" >  F F F</v>
   <v type="logical" >  F F F</v>
   <v type="logical" >  F F F</v>
   <v type="logical" >  F F F</v>
   <v type="logical" >  F F F</v>
   <v type="logical" >  T T T</v>
   <v type="logical" >  T T T</v>
   <v type="logical" >  T T T</v>
   <v type="logical" >  T T T</v>
   <v type="logical" >  T T T</v>
   <v type="logical" >  T T T</v>
   <v type="logical" >  T T T</v>
   <v type="logical" >  T T T</v>
   <v type="logical" >  T T T</v>
   <v type="logical" >  T T T</v>
   <v type="logical" >  T T T</v>
   <v type="logical" >  T T T</v>
   <v type="logical" >  T T T</v>
   <v type="logical" >  T T T</v>
   <v type="logical" >  T T T</v>
   <v type="logical" >  T T T</v>
   <v type="logical" >  T T T</v>
   <v type="logical" >  T T T</v>
   <v type="logical" >  T T T</v>
   <v type="logical" >  T T T</v>
   <v type="logical" >  T T T</v>
   <v type="logical" >  T T T</v>
   <v type="logical" >  T T T</v>
   <v type="logical" >  T T T</v>
   <v type="logical" >  T T T</v>
   <v type="logical" >  T T T</v>
   <v type="logical" >  T T T</v>
   <v type="logical" >  T T T</v>
   <v type="logical" >  T T T</v>
   <v type="logical" >  T T T</v>
   <v type="logical" >  T T T</v>
   <v type="logical" >  T T T</v>
   <v type="logical" >  F F F</v>
   <v type="logical" >  F F F</v>
   <v type="logical" >  F F F</v>
   <v type="logical" >  F F F</v>
   <v type="logical" >  F F F</v>
   <v type="logical" >  F F F</v>
   <v type="logical" >  F F F</v>
   <v type="logical" >  F F F</v>
   <v type="logical" >  F F F</v>
   <v type="logical" >  F F F</v>
   <v type="logical" >  F F F</v>
   <v type="logical" >  F F F</v>
   <v type="logical" >  F F F</v>
   <v type="logical" >  F F F</v>
   <v type="logical" >  F F F</v>
   <v type="logical" >  F F F</v>
   <v type="logical" >  T T T</v>
   <v type="logical" >  T T T</v>
   <v type="logical" >  T T T</v>
   <v type="logical" >  T T T</v>
   <v type="logical" >  T T T</v>
   <v type="logical" >  T T T</v>
   <v type="logical" >  T T T</v>
   <v type="logical" >  T T T</v>
   <v type="logical" >  T T T</v>
   <v type="logical" >  T T T</v>
   <v type="logical" >  T T T</v>
   <v type="logical" >  T T T</v>
   <v type="logical" >  T T T</v>
   <v type="logical" >  T T T</v>
   <v type="logical" >  T T T</v>
   <v type="logical" >  T T T</v>
   <v type="logical" >  T T T</v>
   <v type="logical" >  T T T</v>
   <v type="logical" >  T T T</v>
   <v type="logical" >  T T T</v>
   <v type="logical" >  T T T</v>
   <v type="logical" >  T T T</v>
   <v type="logical" >  T T T</v>
   <v type="logical" >  T T T</v>
   <v type="logical" >  T T T</v>
   <v type="logical" >  T T T</v>
   <v type="logical" >  T T T</v>
   <v type="logical" >  T T T</v>
   <v type="logical" >  T T T</v>
   <v type="logical" >  T T T</v>
   <v type="logical" >  T T T</v>
   <v type="logical" >  T T T</v>
   <v type="logical" >  F F F</v>
   <v type="logical" >  F F F</v>
   <v type="logical" >  F F F</v>
   <v type="logical" >  F F F</v>
   <v type="logical" >  F F F</v>
   <v type="logical" >  F F F</v>
   <v type="logical" >  F F F</v>
   <v type="logical" >  F F F</v>
   <v type="logical" >  F F F</v>
   <v type="logical" >  F F F</v>
   <v type="logical" >  F F F</v>
   <v type="logical" >  F F F</v>
   <v type="logical" >  F F F</v>
   <v type="logical" >  F F F</v>
   <v type="logical" >  F F F</v>
   <v type="logical" >  F F F</v>
   <v type="logical" >  T T T</v>
   <v type="logical" >  T T T</v>
   <v type="logical" >  T T T</v>
   <v type="logical" >  T T T</v>
   <v type="logical" >  T T T</v>
   <v type="logical" >  T T T</v>
   <v type="logical" >  T T T</v>
   <v type="logical" >  T T T</v>
   <v type="logical" >  T T T</v>
   <v type="logical" >  T T T</v>
   <v type="logical" >  T T T</v>
   <v type="logical" >  T T T</v>
   <v type="logical" >  T T T</v>
   <v type="logical" >  T T T</v>
   <v type="logical" >  T T T</v>
   <v type="logical" >  T T T</v>
   <v type="logical" >  T T T</v>
   <v type="logical" >  T T T</v>
   <v type="logical" >  T T T</v>
   <v type="logical" >  T T T</v>
   <v type="logical" >  T T T</v>
   <v type="logical" >  T T T</v>
   <v type="logical" >  T T T</v>
   <v type="logical" >  T T T</v>
   <v type="logical" >  T T T</v>
   <v type="logical" >  T T T</v>
   <v type="logical" >  T T T</v>
   <v type="logical" >  T T T</v>
   <v type="logical" >  T T T</v>
   <v type="logical" >  T T T</v>
   <v type="logical" >  T T T</v>
   <v type="logical" >  T T T</v>
   <v type="logical" >  T T T</v>
   <v type="logical" >  T T T</v>
   <v type="logical" >  T T T</v>
   <v type="logical" >  T T T</v>
   <v type="logical" >  T T T</v>
   <v type="logical" >  T T T</v>
   <v type="logical" >  T T T</v>
   <v type="logical" >  T T T</v>
   <v type="logical" >  T T T</v>
   <v type="logical" >  T T T</v>
   <v type="logical" >  T T T</v>
   <v type="logical" >  T T T</v>
   <v type="logical" >  T T T</v>
  </varray>
  <nose>
   <v>      -3.00000000       0.00000000       0.00010000       0.00010000 </v>
  </nose>
 </structure>
 <calculation>
  <scstep>
   <time name="diag">   22.25   22.24</time>
   <time name="diis">   31.42   31.42</time>
   <time name="orth">    6.12    6.12</time>
   <time name="total">   66.23   66.23</time>
   <energy>
    <i name="alphaZ">   5281.13321127</i>
    <i name="ewald"> 918095.99483316</i>
    <i name="hartreedc">****************</i>
    <i name="XCdc">   5521.15429482</i>
    <i name="pawpsdc"> 133964.49802489</i>
    <i name="pawaedc">-136959.69286591</i>
    <i name="eentropy">      0.01496357</i>
    <i name="bandstr"> -16418.47799487</i>
    <i name="atom"> 189601.87055415</i>
    <i name="e_fr_energy">   9610.57153329</i>
    <i name="e_wo_entrp">   9610.55656972</i>
    <i name="e_0_energy">   9610.56654543</i>
   </energy>
  </scstep>
  <scstep>
   <time name="diag">   22.61   22.62</time>
   <time name="diis">   31.89   31.91</time>
   <time name="orth">    6.35    6.35</time>
   <time name="total">   60.89   60.95</time>
   <energy>
    <i name="e_fr_energy">  -2539.87956152</i>
    <i name="e_wo_entrp">  -2539.91170135</i>
    <i name="e_0_energy">  -2539.89027479</i>
   </energy>
  </scstep>
  <scstep>
   <time name="diag">   22.60   22.60</time>
   <time name="diis">   31.60   31.60</time>
   <time name="orth">    6.16    6.16</time>
   <time name="total">   60.39   60.42</time>
   <energy>
    <i name="e_fr_energy">    774.87546071</i>
    <i name="e_wo_entrp">    774.94041159</i>
    <i name="e_0_energy">    774.89711100</i>
   </energy>
  </scstep>
  <scstep>
   <time name="diag">   22.79   22.78</time>
   <time name="diis">   31.58   31.57</time>
   <time name="orth">    6.15    6.15</time>
   <time name="total">   60.56   60.59</time>
   <energy>
    <i name="e_fr_energy">   -282.91946201</i>
    <i name="e_wo_entrp">   -282.90373389</i>
    <i name="e_0_energy">   -282.91421931</i>
   </energy>
  </scstep>
  <scstep>
   <time name="diag">   23.04   23.04</time>
   <time name="diis">   31.58   31.58</time>
   <time name="orth">    6.17    6.17</time>
   <time name="total">   60.83   60.97</time>
   <energy>
    <i name="e_fr_energy">   -775.80995881</i>
    <i name="e_wo_entrp">   -775.75525683</i>
    <i name="e_0_energy">   -775.79172482</i>
   </energy>
  </scstep>
  <scstep>
   <time name="diag">   24.00   24.00</time>
   <time name="diis">   31.99   31.99</time>
   <time name="orth">    6.56    6.56</time>
   <time name="total">   62.59   62.61</time>
   <energy>
    <i name="e_fr_energy">   -972.16919760</i>
    <i name="e_wo_entrp">   -972.19708561</i>
    <i name="e_0_energy">   -972.17849360</i>
   </energy>
  </scstep>
  <scstep>
   <time name="diag">   23.75   23.74</time>
   <time name="diis">   31.65   31.64</time>
   <time name="orth">    6.19    6.19</time>
   <time name="total">   61.62   61.64</time>
   <energy>
    <i name="e_fr_energy">  -1067.74942006</i>
    <i name="e_wo_entrp">  -1067.77657462</i>
    <i name="e_0_energy">  -1067.75847158</i>
   </energy>
  </scstep>
  <scstep>
   <time name="diag">   23.43   23.42</time>
   <time name="diis">   31.82   31.82</time>
   <time name="orth">    6.26    6.25</time>
   <time name="total">   61.54   61.54</time>
   <energy>
    <i name="e_fr_energy">  -1105.62284287</i>
    <i name="e_wo_entrp">  -1105.63492833</i>
    <i name="e_0_energy">  -1105.62687136</i>
   </energy>
  </scstep>
  <scstep>
   <time name="diag">   23.49   23.49</time>
   <time name="diis">   79.83   79.84</time>
   <time name="orth">    6.14    6.14</time>
   <time name="total">  109.51  109.53</time>
   <energy>
    <i name="e_fr_energy">  -1340.63175530</i>
    <i name="e_wo_entrp">  -1340.61349440</i>
    <i name="e_0_energy">  -1340.62566833</i>
   </energy>
  </scstep>
  <scstep>
   <time name="diag">   23.55   23.54</time>
   <time name="diis">   78.81   78.81</time>
   <time name="orth">    6.10    6.11</time>
   <time name="total">  108.50  108.51</time>
   <energy>
    <i name="e_fr_energy">  -1352.55999968</i>
    <i name="e_wo_entrp">  -1352.50996530</i>
    <i name="e_0_energy">  -1352.54332155</i>
   </energy>
  </scstep>
  <scstep>
   <time name="diag">   23.43   23.43</time>
   <time name="diis">   76.74   76.73</time>
   <time name="orth">    6.09    6.09</time>
   <time name="total">  106.30  106.32</time>
   <energy>
    <i name="e_fr_energy">  -1354.99688635</i>
    <i name="e_wo_entrp">  -1354.93925053</i>
    <i name="e_0_energy">  -1354.97767441</i>
   </energy>
  </scstep>
  <scstep>
   <time name="diag">   23.77   23.77</time>
   <time name="diis">   75.16   75.16</time>
   <time name="orth">    6.18    6.18</time>
   <time name="total">  112.93  112.94</time>
   <energy>
    <i name="e_fr_energy">  -1355.74904280</i>
    <i name="e_wo_entrp">  -1355.68861866</i>
    <i name="e_0_energy">  -1355.72890142</i>
   </energy>
  </scstep>
  <scstep>
   <time name="diag">   24.20   24.20</time>
   <time name="diis">   65.99   65.99</time>
   <time name="orth">    6.37    6.37</time>
   <time name="total">  110.49  110.50</time>
   <energy>
    <i name="e_fr_energy">  -2628.87889468</i>
    <i name="e_wo_entrp">  -2628.89506887</i>
    <i name="e_0_energy">  -2628.88428608</i>
   </energy>
  </scstep>
  <scstep>
   <time name="diag">   23.53   23.52</time>
   <time name="diis">   56.52   56.52</time>
   <time name="orth">    6.32    6.32</time>
   <time name="total">  100.00  100.03</time>
   <energy>
    <i name="e_fr_energy">  -2208.75930773</i>
    <i name="e_wo_entrp">  -2208.71274946</i>
    <i name="e_0_energy">  -2208.74378831</i>
   </energy>
  </scstep>
  <scstep>
   <time name="diag">   24.69   24.69</time>
   <time name="diis">   53.56   53.56</time>
   <time name="orth">    6.17    6.17</time>
   <time name="total">   98.45   98.47</time>
   <energy>
    <i name="e_fr_energy">  -1458.21379278</i>
    <i name="e_wo_entrp">  -1458.22785213</i>
    <i name="e_0_energy">  -1458.21847923</i>
   </energy>
  </scstep>
  <scstep>
   <time name="diag">   24.89   24.88</time>
   <time name="diis">   53.51   53.51</time>
   <time name="orth">    6.27    6.27</time>
   <time name="total">   98.75   98.76</time>
   <energy>
    <i name="e_fr_energy">  -1247.74879408</i>
    <i name="e_wo_entrp">  -1247.73507711</i>
    <i name="e_0_energy">  -1247.74422175</i>
   </energy>
  </scstep>
  <scstep>
   <time name="diag">   24.43   24.42</time>
   <time name="diis">   55.78   55.78</time>
   <time name="orth">    6.19    6.19</time>
   <time name="total">  100.31  100.34</time>
   <energy>
    <i name="e_fr_energy">  -1228.32349506</i>
    <i name="e_wo_entrp">  -1228.28418935</i>
    <i name="e_0_energy">  -1228.31039316</i>
   </energy>
  </scstep>
  <scstep>
   <time name="diag">   24.91   24.91</time>
   <time name="diis">   68.78   68.78</time>
   <time name="orth">    6.35    6.35</time>
   <time name="total">  114.10  114.11</time>
   <energy>
    <i name="e_fr_energy">  -1274.21696320</i>
    <i name="e_wo_entrp">  -1274.18299620</i>
    <i name="e_0_energy">  -1274.20564086</i>
   </energy>
  </scstep>
  <scstep>
   <time name="diag">   24.62   24.62</time>
   <time name="diis">   53.84   53.86</time>
   <time name="orth">    6.30    6.30</time>
   <time name="total">   98.84   98.89</time>
   <energy>
    <i name="e_fr_energy">  -1220.21599598</i>
    <i name="e_wo_entrp">  -1220.21621954</i>
    <i name="e_0_energy">  -1220.21607050</i>
   </energy>
  </scstep>
  <scstep>
   <time name="diag">   24.56   24.56</time>
   <time name="diis">   53.29   53.29</time>
   <time name="orth">    6.05    6.05</time>
   <time name="total">   97.98   97.99</time>
   <energy>
    <i name="e_fr_energy">  -1206.08811580</i>
    <i name="e_wo_entrp">  -1206.09724536</i>
    <i name="e_0_energy">  -1206.09115899</i>
   </energy>
  </scstep>
  <scstep>
   <time name="diag">   24.31   24.31</time>
   <time name="diis">   53.64   53.64</time>
   <time name="orth">    6.16    6.16</time>
   <time name="total">   98.33   98.35</time>
   <energy>
    <i name="e_fr_energy">  -1212.74108634</i>
    <i name="e_wo_entrp">  -1212.74964231</i>
    <i name="e_0_energy">  -1212.74393833</i>
   </energy>
  </scstep>
  <scstep>
   <time name="diag">   25.18   25.18</time>
   <time name="diis">   53.57   53.57</time>
   <time name="orth">    6.35    6.35</time>
   <time name="total">   99.83   99.84</time>
   <energy>
    <i name="e_fr_energy">  -1215.97544327</i>
    <i name="e_wo_entrp">  -1215.97382009</i>
    <i name="e_0_energy">  -1215.97490221</i>
   </energy>
  </scstep>
  <scstep>
   <time name="diag">   24.08   24.08</time>
   <time name="diis">   53.58   53.58</time>
   <time name="orth">    6.07    6.07</time>
   <time name="total">   97.76   97.83</time>
   <energy>
    <i name="e_fr_energy">  -1211.54034035</i>
    <i name="e_wo_entrp">  -1211.55967276</i>
    <i name="e_0_energy">  -1211.54678449</i>
   </energy>
  </scstep>
  <scstep>
   <time name="diag">   24.90   24.90</time>
   <time name="diis">   53.52   53.52</time>
   <time name="orth">    6.22    6.22</time>
   <time name="total">   98.83   98.84</time>
   <energy>
    <i name="e_fr_energy">  -1212.70101834</i>
    <i name="e_wo_entrp">  -1212.69929021</i>
    <i name="e_0_energy">  -1212.70044230</i>
   </energy>
  </scstep>
  <scstep>
   <time name="diag">   25.15   25.16</time>
   <time name="diis">   53.87   53.88</time>
   <time name="orth">    6.38    6.38</time>
   <time name="total">  100.01  100.06</time>
   <energy>
    <i name="e_fr_energy">  -1215.35128438</i>
    <i name="e_wo_entrp">  -1215.33909280</i>
    <i name="e_0_energy">  -1215.34722052</i>
   </energy>
  </scstep>
  <scstep>
   <time name="diag">   24.19   24.19</time>
   <time name="diis">   53.21   53.23</time>
   <time name="orth">    6.14    6.14</time>
   <time name="total">   97.41   97.51</time>
   <energy>
    <i name="e_fr_energy">  -1217.70519252</i>
    <i name="e_wo_entrp">  -1217.70194662</i>
    <i name="e_0_energy">  -1217.70411055</i>
   </energy>
  </scstep>
  <scstep>
   <time name="diag">   24.74   24.74</time>
   <time name="diis">   54.23   54.23</time>
   <time name="orth">    6.21    6.21</time>
   <time name="total">   99.37   99.39</time>
   <energy>
    <i name="e_fr_energy">  -1221.52377235</i>
    <i name="e_wo_entrp">  -1221.52944007</i>
    <i name="e_0_energy">  -1221.52566159</i>
   </energy>
  </scstep>
  <scstep>
   <time name="diag">   24.99   24.99</time>
   <time name="diis">   55.49   55.49</time>
   <time name="orth">    6.36    6.36</time>
   <time name="total">  101.40  101.42</time>
   <energy>
    <i name="e_fr_energy">  -1221.67779672</i>
    <i name="e_wo_entrp">  -1221.66095095</i>
    <i name="e_0_energy">  -1221.67218146</i>
   </energy>
  </scstep>
  <scstep>
   <time name="diag">   24.80   24.80</time>
   <time name="diis">   58.92   58.92</time>
   <time name="orth">    6.21    6.21</time>
   <time name="total">  104.62  104.64</time>
   <energy>
    <i name="e_fr_energy">  -1221.82849364</i>
    <i name="e_wo_entrp">  -1221.81817229</i>
    <i name="e_0_energy">  -1221.82505319</i>
   </energy>
  </scstep>
  <scstep>
   <time name="diag">   24.83   24.83</time>
   <time name="diis">   67.63   67.63</time>
   <time name="orth">    6.17    6.17</time>
   <time name="total">  112.66  112.70</time>
   <energy>
    <i name="e_fr_energy">  -1222.08609840</i>
    <i name="e_wo_entrp">  -1222.06938416</i>
    <i name="e_0_energy">  -1222.08052698</i>
   </energy>
  </scstep>
  <scstep>
   <time name="diag">   24.75   24.75</time>
   <time name="diis">   64.87   64.87</time>
   <time name="orth">    6.16    6.16</time>
   <time name="total">  109.77  109.80</time>
   <energy>
    <i name="e_fr_energy">  -1222.10454590</i>
    <i name="e_wo_entrp">  -1222.08883237</i>
    <i name="e_0_energy">  -1222.09930806</i>
   </energy>
  </scstep>
  <scstep>
   <time name="diag">   25.16   25.16</time>
   <time name="diis">   53.66   53.66</time>
   <time name="orth">    6.48    6.48</time>
   <time name="total">   99.56   99.62</time>
   <energy>
    <i name="e_fr_energy">  -1221.61344959</i>
    <i name="e_wo_entrp">  -1221.60261446</i>
    <i name="e_0_energy">  -1221.60983788</i>
   </energy>
  </scstep>
  <scstep>
   <time name="diag">   24.90   24.90</time>
   <time name="diis">   63.19   63.18</time>
   <time name="orth">    6.23    6.23</time>
   <time name="total">  108.69  108.88</time>
   <energy>
    <i name="e_fr_energy">  -1221.61452577</i>
    <i name="e_wo_entrp">  -1221.60391996</i>
    <i name="e_0_energy">  -1221.61099050</i>
   </energy>
  </scstep>
  <scstep>
   <time name="diag">   24.51   24.52</time>
   <time name="diis">   53.48   53.47</time>
   <time name="orth">    6.16    6.16</time>
   <time name="total">   98.25   98.25</time>
   <energy>
    <i name="e_fr_energy">  -1223.87913153</i>
    <i name="e_wo_entrp">  -1223.85815857</i>
    <i name="e_0_energy">  -1223.87214055</i>
   </energy>
  </scstep>
  <scstep>
   <time name="diag">   25.05   25.05</time>
   <time name="diis">   54.10   54.10</time>
   <time name="orth">    6.36    6.36</time>
   <time name="total">   99.87   99.88</time>
   <energy>
    <i name="e_fr_energy">  -1224.90760820</i>
    <i name="e_wo_entrp">  -1224.90274271</i>
    <i name="e_0_energy">  -1224.90598637</i>
   </energy>
  </scstep>
  <scstep>
   <time name="diag">   24.72   24.71</time>
   <time name="diis">   53.62   53.63</time>
   <time name="orth">    6.12    6.12</time>
   <time name="total">   98.95   99.00</time>
   <energy>
    <i name="e_fr_energy">  -1229.28604687</i>
    <i name="e_wo_entrp">  -1229.26664933</i>
    <i name="e_0_energy">  -1229.27958102</i>
   </energy>
  </scstep>
  <scstep>
   <time name="diag">   24.49   24.49</time>
   <time name="diis">   53.22   53.23</time>
   <time name="orth">    6.08    6.08</time>
   <time name="total">   97.79   97.96</time>
   <energy>
    <i name="e_fr_energy">  -1233.01879206</i>
    <i name="e_wo_entrp">  -1233.00076418</i>
    <i name="e_0_energy">  -1233.01278277</i>
   </energy>
  </scstep>
  <scstep>
   <time name="diag">   24.80   24.80</time>
   <time name="diis">   55.19   55.19</time>
   <time name="orth">    6.37    6.37</time>
   <time name="total">  100.83  100.84</time>
   <energy>
    <i name="e_fr_energy">  -1236.75130408</i>
    <i name="e_wo_entrp">  -1236.74643423</i>
    <i name="e_0_energy">  -1236.74968080</i>
   </energy>
  </scstep>
  <scstep>
   <time name="diag">   23.96   23.96</time>
   <time name="diis">   53.92   53.92</time>
   <time name="orth">    6.06    6.06</time>
   <time name="total">   98.18   98.20</time>
   <energy>
    <i name="e_fr_energy">  -1239.19890519</i>
    <i name="e_wo_entrp">  -1239.19967099</i>
    <i name="e_0_energy">  -1239.19916046</i>
   </energy>
  </scstep>
  <scstep>
   <time name="diag">   24.73   24.72</time>
   <time name="diis">   55.64   55.64</time>
   <time name="orth">    6.15    6.15</time>
   <time name="total">  101.20  101.21</time>
   <energy>
    <i name="e_fr_energy">  -1239.25162208</i>
    <i name="e_wo_entrp">  -1239.27812731</i>
    <i name="e_0_energy">  -1239.26045716</i>
   </energy>
  </scstep>
  <scstep>
   <time name="diag">   24.67   24.67</time>
   <time name="diis">   55.47   55.46</time>
   <time name="orth">    6.17    6.17</time>
   <time name="total">  100.74  100.76</time>
   <energy>
    <i name="e_fr_energy">  -1240.28283535</i>
    <i name="e_wo_entrp">  -1240.27832217</i>
    <i name="e_0_energy">  -1240.28133096</i>
   </energy>
  </scstep>
  <scstep>
   <time name="diag">   24.53   24.53</time>
   <time name="diis">   54.72   54.72</time>
   <time name="orth">    6.03    6.03</time>
   <time name="total">   99.63   99.64</time>
   <energy>
    <i name="e_fr_energy">  -1240.68892078</i>
    <i name="e_wo_entrp">  -1240.68964585</i>
    <i name="e_0_energy">  -1240.68916247</i>
   </energy>
  </scstep>
  <scstep>
   <time name="diag">   24.71   24.70</time>
   <time name="diis">   56.74   56.74</time>
   <time name="orth">    6.12    6.12</time>
   <time name="total">  102.01  102.04</time>
   <energy>
    <i name="e_fr_energy">  -1240.92384149</i>
    <i name="e_wo_entrp">  -1240.92292322</i>
    <i name="e_0_energy">  -1240.92353540</i>
   </energy>
  </scstep>
  <scstep>
   <time name="diag">   25.40   25.40</time>
   <time name="diis">   55.69   55.68</time>
   <time name="orth">    6.34    6.34</time>
   <time name="total">  102.50  102.57</time>
   <energy>
    <i name="e_fr_energy">  -1241.64835787</i>
    <i name="e_wo_entrp">  -1241.65917822</i>
    <i name="e_0_energy">  -1241.65196465</i>
   </energy>
  </scstep>
  <scstep>
   <time name="diag">   24.98   24.98</time>
   <time name="diis">   56.19   56.19</time>
   <time name="orth">    6.18    6.18</time>
   <time name="total">  102.40  102.47</time>
   <energy>
    <i name="e_fr_energy">  -1242.07418014</i>
    <i name="e_wo_entrp">  -1242.07761826</i>
    <i name="e_0_energy">  -1242.07532618</i>
   </energy>
  </scstep>
  <scstep>
   <time name="diag">   25.05   25.04</time>
   <time name="diis">   55.98   55.97</time>
   <time name="orth">    6.30    6.30</time>
   <time name="total">  102.12  102.14</time>
   <energy>
    <i name="e_fr_energy">  -1242.92727738</i>
    <i name="e_wo_entrp">  -1242.94844164</i>
    <i name="e_0_energy">  -1242.93433213</i>
   </energy>
  </scstep>
  <scstep>
   <time name="diag">   25.07   25.07</time>
   <time name="diis">   56.16   56.15</time>
   <time name="orth">    6.36    6.36</time>
   <time name="total">  102.42  102.44</time>
   <energy>
    <i name="e_fr_energy">  -1243.72361342</i>
    <i name="e_wo_entrp">  -1243.73625146</i>
    <i name="e_0_energy">  -1243.72782610</i>
   </energy>
  </scstep>
  <scstep>
   <time name="diag">   25.07   25.07</time>
   <time name="diis">   59.59   59.59</time>
   <time name="orth">    6.23    6.23</time>
   <time name="total">  105.76  105.78</time>
   <energy>
    <i name="e_fr_energy">  -1244.58976283</i>
    <i name="e_wo_entrp">  -1244.61504317</i>
    <i name="e_0_energy">  -1244.59818961</i>
   </energy>
  </scstep>
  <scstep>
   <time name="diag">   25.20   25.20</time>
   <time name="diis">   58.72   58.71</time>
   <time name="orth">    6.46    6.45</time>
   <time name="total">  105.65  105.87</time>
   <energy>
    <i name="e_fr_energy">  -1245.02856165</i>
    <i name="e_wo_entrp">  -1245.04876685</i>
    <i name="e_0_energy">  -1245.03529672</i>
   </energy>
  </scstep>
  <scstep>
   <time name="diag">   24.79   24.78</time>
   <time name="diis">   56.71   56.71</time>
   <time name="orth">    6.12    6.13</time>
   <time name="total">  102.57  102.58</time>
   <energy>
    <i name="e_fr_energy">  -1245.57751841</i>
    <i name="e_wo_entrp">  -1245.60693985</i>
    <i name="e_0_energy">  -1245.58732555</i>
   </energy>
  </scstep>
  <scstep>
   <time name="diag">   24.74   24.74</time>
   <time name="diis">   55.57   55.57</time>
   <time name="orth">    6.07    6.07</time>
   <time name="total">  101.19  101.20</time>
   <energy>
    <i name="e_fr_energy">  -1246.01334225</i>
    <i name="e_wo_entrp">  -1246.03946051</i>
    <i name="e_0_energy">  -1246.02204833</i>
   </energy>
  </scstep>
  <scstep>
   <time name="diag">   24.78   24.78</time>
   <time name="diis">   55.12   55.12</time>
   <time name="orth">    6.17    6.17</time>
   <time name="total">  101.02  101.06</time>
   <energy>
    <i name="e_fr_energy">  -1246.55173317</i>
    <i name="e_wo_entrp">  -1246.57915008</i>
    <i name="e_0_energy">  -1246.56087214</i>
   </energy>
  </scstep>
  <scstep>
   <time name="diag">   25.19   25.20</time>
   <time name="diis">   54.50   54.50</time>
   <time name="orth">    6.30    6.30</time>
   <time name="total">  100.98  100.98</time>
   <energy>
    <i name="e_fr_energy">  -1247.12225666</i>
    <i name="e_wo_entrp">  -1247.13857866</i>
    <i name="e_0_energy">  -1247.12769733</i>
   </energy>
  </scstep>
  <scstep>
   <time name="diag">   25.26   25.26</time>
   <time name="diis">   55.58   55.58</time>
   <time name="orth">    6.34    6.34</time>
   <time name="total">  102.59  102.61</time>
   <energy>
    <i name="e_fr_energy">  -1247.27158518</i>
    <i name="e_wo_entrp">  -1247.29777417</i>
    <i name="e_0_energy">  -1247.28031484</i>
   </energy>
  </scstep>
  <scstep>
   <time name="diag">   25.25   25.25</time>
   <time name="diis">   55.79   55.81</time>
   <time name="orth">    6.33    6.33</time>
   <time name="total">  102.38  102.43</time>
   <energy>
    <i name="e_fr_energy">  -1247.40322598</i>
    <i name="e_wo_entrp">  -1247.42201243</i>
    <i name="e_0_energy">  -1247.40948813</i>
   </energy>
  </scstep>
  <scstep>
   <time name="diag">   25.01   25.01</time>
   <time name="diis">   54.55   54.55</time>
   <time name="orth">    6.17    6.17</time>
   <time name="total">  100.72  100.73</time>
   <energy>
    <i name="e_fr_energy">  -1247.57421959</i>
    <i name="e_wo_entrp">  -1247.59580972</i>
    <i name="e_0_energy">  -1247.58141630</i>
   </energy>
  </scstep>
  <scstep>
   <time name="diag">   24.76   24.76</time>
   <time name="diis">   54.98   54.98</time>
   <time name="orth">    6.18    6.18</time>
   <time name="total">  100.64  100.66</time>
   <energy>
    <i name="e_fr_energy">  -1247.89875416</i>
    <i name="e_wo_entrp">  -1247.92199577</i>
    <i name="e_0_energy">  -1247.90650137</i>
   </energy>
  </scstep>
  <scstep>
   <time name="diag">   25.21   25.22</time>
   <time name="diis">   54.63   54.62</time>
   <time name="orth">    6.43    6.43</time>
   <time name="total">  101.51  101.52</time>
   <energy>
    <i name="e_fr_energy">  -1247.96609436</i>
    <i name="e_wo_entrp">  -1247.99656818</i>
    <i name="e_0_energy">  -1247.97625230</i>
   </energy>
  </scstep>
  <scstep>
   <time name="diag">   24.88   24.87</time>
   <time name="diis">   58.91   58.91</time>
   <time name="orth">    6.09    6.09</time>
   <time name="total">  104.57  104.60</time>
   <energy>
    <i name="e_fr_energy">  -1248.12857301</i>
    <i name="e_wo_entrp">  -1248.15494308</i>
    <i name="e_0_energy">  -1248.13736303</i>
   </energy>
  </scstep>
  <scstep>
   <time name="diag">   24.79   24.78</time>
   <time name="diis">   55.13   55.13</time>
   <time name="orth">    6.09    6.09</time>
   <time name="total">   91.98   92.00</time>
   <energy>
    <i name="alphaZ">   5281.13321127</i>
    <i name="ewald"> 918095.99483316</i>
    <i name="hartreedc">****************</i>
    <i name="XCdc">   5442.31495844</i>
    <i name="pawpsdc"> 139479.54449400</i>
    <i name="pawaedc">-142714.22330365</i>
    <i name="eentropy">      0.02567654</i>
    <i name="bandstr"> -26513.14070129</i>
    <i name="atom"> 189601.87055415</i>
    <i name="e_fr_energy">  -1248.29273185</i>
    <i name="e_wo_entrp">  -1248.31840839</i>
    <i name="e_0_energy">  -1248.30129070</i>
   </energy>
  </scstep>
  <structure>
   <crystal>
    <varray name="basis" >
     <v>      11.87300000       0.00000000       0.00000000 </v>
     <v>       0.00000000      12.95900000       0.00000000 </v>
     <v>       0.00000000       0.00000000      29.43000000 </v>
    </varray>
    <i name="volume">   4528.16475201</i>
    <varray name="rec_basis" >
     <v>       0.08422471       0.00000000       0.00000000 </v>
     <v>       0.00000000       0.07716645       0.00000000 </v>
     <v>       0.00000000       0.00000000       0.03397893 </v>
    </varray>
   </crystal>
   <varray name="positions" >
    <v>       0.47390971       0.10515549       0.13229086 </v>
    <v>       0.23100985       0.25117293       0.01686646 </v>
    <v>       0.99213173       0.12918512       0.12510330 </v>
    <v>       0.73737893       0.22068755       0.04102005 </v>
    <v>       0.41529689       0.39294930       0.01886578 </v>
    <v>       0.24340942       0.44306351       0.14081651 </v>
    <v>       0.88179146       0.37638012       0.04600340 </v>
    <v>       0.62407226       0.45705224       0.12864526 </v>
    <v>       0.47387097       0.60516244       0.13229834 </v>
    <v>       0.23102417       0.75119145       0.01685729 </v>
    <v>       0.99212078       0.62922139       0.12510024 </v>
    <v>       0.73736545       0.72069141       0.04102175 </v>
    <v>       0.41526489       0.89297168       0.01885321 </v>
    <v>       0.24337657       0.94305811       0.14081006 </v>
    <v>       0.88179399       0.87636778       0.04599966 </v>
    <v>       0.62403773       0.95704375       0.12864628 </v>
    <v>       0.42694180       0.06899761       0.27432246 </v>
    <v>       0.47317864       0.11648738       0.40091064 </v>
    <v>       0.25233471       0.24174396       0.17310703 </v>
    <v>       0.14521519       0.18589320       0.32989229 </v>
    <v>       0.88512592       0.11712709       0.27455793 </v>
    <v>       0.03071844       0.09713635       0.39288753 </v>
    <v>       0.74756675       0.19571340       0.19800306 </v>
    <v>       0.75107976       0.21023150       0.33216072 </v>
    <v>       0.45788091       0.37186048       0.17246041 </v>
    <v>       0.42908448       0.39637241       0.31722868 </v>
    <v>       0.24059210       0.44466163       0.26851036 </v>
    <v>       0.22731155       0.46160583       0.40818485 </v>
    <v>       0.92950476       0.32265453       0.18963846 </v>
    <v>       0.89474101       0.36189984       0.33547774 </v>
    <v>       0.61068306       0.44831314       0.26907917 </v>
    <v>       0.63185463       0.47698356       0.40327625 </v>
    <v>       0.42551588       0.57001620       0.27542304 </v>
    <v>       0.47036469       0.61469249       0.40465613 </v>
    <v>       0.24697381       0.74455822       0.17144037 </v>
    <v>       0.15132822       0.69037194       0.32729290 </v>
    <v>       0.88329740       0.61693418       0.27391233 </v>
    <v>       0.04724333       0.59468323       0.39191199 </v>
    <v>       0.74964794       0.69475654       0.19815732 </v>
    <v>       0.74517308       0.71185585       0.33117193 </v>
    <v>       0.45581066       0.87076703       0.17242270 </v>
    <v>       0.41867515       0.88648352       0.31633775 </v>
    <v>       0.23906342       0.94410989       0.26815664 </v>
    <v>       0.21336899       0.96200015       0.40383962 </v>
    <v>       0.93203992       0.82294081       0.18953075 </v>
    <v>       0.89305651       0.85845436       0.33582263 </v>
    <v>       0.61039586       0.94646732       0.26784268 </v>
    <v>       0.63065864       0.97728683       0.40268807 </v>
    <v>       0.30279542       0.06524963       0.06150085 </v>
    <v>       0.05801314       0.05105564       0.03691981 </v>
    <v>       0.81271962       0.02398102       0.08186714 </v>
    <v>       0.58452202       0.07464156       0.05047740 </v>
    <v>       0.31970016       0.26385832       0.10145158 </v>
    <v>       0.03749684       0.31113435       0.09821101 </v>
    <v>       0.77181925       0.31001312       0.12703772 </v>
    <v>       0.54676998       0.28165213       0.08764084 </v>
    <v>       0.30282490       0.56523497       0.06150561 </v>
    <v>       0.05803841       0.55106413       0.03692491 </v>
    <v>       0.81270951       0.52400571       0.08186986 </v>
    <v>       0.58449255       0.57462844       0.05047978 </v>
    <v>       0.31969932       0.76384906       0.10144580 </v>
    <v>       0.03750274       0.81111583       0.09819028 </v>
    <v>       0.77181504       0.80999306       0.12703772 </v>
    <v>       0.54675735       0.78164673       0.08763235 </v>
    <v>       0.30391308       0.05132263       0.19856473 </v>
    <v>       0.30125495       0.05260437       0.34401053 </v>
    <v>       0.04522867       0.00813875       0.21463405 </v>
    <v>       0.06500969       0.99228799       0.32334455 </v>
    <v>       0.79463573       0.99139285       0.20069079 </v>
    <v>       0.82818664       0.04982560       0.36614509 </v>
    <v>       0.56300430       0.06168223       0.20352633 </v>
    <v>       0.59070580       0.07057721       0.33290112 </v>
    <v>       0.29918639       0.24632456       0.26457085 </v>
    <v>       0.32087425       0.27422486       0.38046993 </v>
    <v>       0.04195486       0.29724053       0.26669351 </v>
    <v>       0.08252758       0.30450806       0.39259667 </v>
    <v>       0.78311800       0.31270314       0.25988073 </v>
    <v>       0.77606671       0.32993904       0.40244886 </v>
    <v>       0.54960077       0.24835327       0.25484132 </v>
    <v>       0.56734018       0.29515549       0.36937717 </v>
    <v>       0.30445886       0.55277336       0.19867448 </v>
    <v>       0.29559252       0.55291226       0.34672239 </v>
    <v>       0.04665544       0.50659850       0.21358648 </v>
    <v>       0.06197423       0.49604059       0.32138906 </v>
    <v>       0.79388865       0.49209507       0.19984302 </v>
    <v>       0.82798534       0.55436608       0.36608733 </v>
    <v>       0.56337236       0.56147234       0.20411145 </v>
    <v>       0.58188748       0.57444710       0.33449915 </v>
    <v>       0.30071001       0.74840265       0.25790078 </v>
    <v>       0.32160364       0.77085886       0.38575569 </v>
    <v>       0.04209888       0.79863107       0.26644207 </v>
    <v>       0.08288385       0.79368933       0.39234828 </v>
    <v>       0.78394845       0.81282969       0.25909854 </v>
    <v>       0.77203487       0.82975307       0.40269079 </v>
    <v>       0.54996799       0.74710471       0.25447163 </v>
    <v>       0.56237851       0.79175168       0.37176690 </v>
    <v>       0.42167270       0.21022455       0.02453143 </v>
    <v>       0.18213004       0.11937418       0.12960584 </v>
    <v>       0.91724164       0.18716799       0.05511111 </v>
    <v>       0.66061147       0.14220850       0.13439314 </v>
    <v>       0.43630843       0.44581835       0.10316684 </v>
    <v>       0.18883012       0.39784628       0.05437139 </v>
    <v>       0.94139560       0.44786558       0.14227523 </v>
    <v>       0.68446391       0.39242225       0.03587598 </v>
    <v>       0.42168197       0.71024307       0.02453857 </v>
    <v>       0.18216036       0.61936569       0.12960483 </v>
    <v>       0.91725175       0.68714175       0.05511859 </v>
    <v>       0.66059715       0.64221931       0.13439585 </v>
    <v>       0.43629327       0.94584150       0.10315936 </v>
    <v>       0.18881664       0.89785169       0.05436901 </v>
    <v>       0.94141919       0.94785477       0.14226096 </v>
    <v>       0.68443696       0.89243151       0.03588107 </v>
    <v>       0.42773267       0.20774057       0.18995990 </v>
    <v>       0.43751200       0.19892893       0.32349915 </v>
    <v>       0.17299503       0.10373408       0.26441998 </v>
    <v>       0.20287122       0.14365152       0.41272137 </v>
    <v>       0.93860187       0.16489158       0.20519062 </v>
    <v>       0.95252169       0.19786558       0.33723887 </v>
    <v>       0.70288385       0.11276024       0.26529358 </v>
    <v>       0.67992672       0.15417007       0.40723479 </v>
    <v>       0.42284427       0.41908018       0.24269181 </v>
    <v>       0.43604060       0.43728683       0.39701903 </v>
    <v>       0.17349196       0.36413381       0.20712029 </v>
    <v>       0.19781184       0.35491936       0.32827761 </v>
    <v>       0.91176703       0.44884482       0.26818994 </v>
    <v>       0.95693422       0.44199784       0.40439789 </v>
    <v>       0.64637497       0.35927464       0.19345973 </v>
    <v>       0.71345321       0.41136585       0.33121135 </v>
    <v>       0.42690390       0.70693649       0.18856167 </v>
    <v>       0.42800809       0.70292152       0.32301835 </v>
    <v>       0.17589405       0.60358052       0.26352531 </v>
    <v>       0.21220753       0.64030249       0.42165206 </v>
    <v>       0.94114883       0.66516861       0.20544105 </v>
    <v>       0.95657458       0.69519407       0.33598097 </v>
    <v>       0.70046239       0.61142912       0.26633062 </v>
    <v>       0.67879643       0.65305656       0.40806626 </v>
    <v>       0.42446307       0.91879157       0.24256677 </v>
    <v>       0.43478481       0.93883324       0.39498879 </v>
    <v>       0.16870631       0.86576125       0.20614203 </v>
    <v>       0.20675230       0.85506212       0.32934591 </v>
    <v>       0.91198012       0.94994444       0.27048522 </v>
    <v>       0.96010865       0.93540242       0.40410126 </v>
    <v>       0.64567001       0.85870901       0.19304213 </v>
    <v>       0.71025604       0.90369164       0.33037445 </v>
    <v>       0.38733260       0.62854155       0.49026877 </v>
    <v>       0.50298324       0.64745505       0.49127863 </v>
    <v>       0.57843679       0.56457211       0.49104315 </v>
    <v>       0.53829866       0.46319701       0.48932892 </v>
    <v>       0.42257475       0.44545027       0.48853721 </v>
    <v>       0.34640782       0.52762250       0.48913184 </v>
    <v>       0.69314664       0.57843661       0.49277744 </v>
    <v>       0.32898341       0.69340227       0.49059055 </v>
    <v>       0.53491957       0.72650590       0.49231634 </v>
    <v>       0.59853954       0.39979319       0.48906762 </v>
    <v>       0.39150594       0.36636855       0.48751818 </v>
    <v>       0.25612229       0.51321475       0.48839823 </v>
    <v>       0.70927819       0.65194691       0.49473361 </v>
   </varray>
  </structure>
  <varray name="forces" >
   <v>      -0.03068461       0.50919222      -1.75625800 </v>
   <v>       0.48572585      -0.60343028       1.26409275 </v>
   <v>      -0.24347737      -0.23585918       0.35229953 </v>
   <v>      -0.88219321      -0.40446567       0.91548112 </v>
   <v>      -0.42839661       0.02218837       1.45704837 </v>
   <v>      -0.43400354      -0.13591518      -0.86703931 </v>
   <v>       0.61845735      -0.22585350       0.79746476 </v>
   <v>       0.29866053       0.04388797      -0.33434219 </v>
   <v>       0.02135005       0.29777842      -1.76361511 </v>
   <v>       0.42046249      -0.65750230       1.08220841 </v>
   <v>      -0.27101830      -0.28304923       0.49132076 </v>
   <v>      -0.33968146       0.20947101       0.75774740 </v>
   <v>      -0.42607188       0.05236746       1.67039170 </v>
   <v>      -0.33437150      -0.00771246      -0.80501008 </v>
   <v>       0.26477267      -0.17099226       0.71181753 </v>
   <v>       0.34279245       0.07089435      -0.32306924 </v>
   <v>      -0.13144054      -0.18561160       0.13822208 </v>
   <v>       0.04864766      -0.13177163       0.07156450 </v>
   <v>       0.15507688       0.04956889       0.02356524 </v>
   <v>       0.10841860      -0.18249124       0.01519531 </v>
   <v>      -0.14174263       0.03805437      -0.02997537 </v>
   <v>      -0.22461446      -0.04855479      -0.10240826 </v>
   <v>       0.06245596      -0.01562119       0.09592425 </v>
   <v>      -0.05581410      -0.03863160      -0.15120440 </v>
   <v>      -0.17176871       0.00221884      -0.00172571 </v>
   <v>      -0.00750958      -0.08369363      -0.15010340 </v>
   <v>       0.18812931       0.06956156       0.00633004 </v>
   <v>      -0.23361926      -0.04478731      -0.08132675 </v>
   <v>       0.07830728       0.07738224       0.28007175 </v>
   <v>      -0.01915723       0.14876331      -0.14764154 </v>
   <v>      -0.13652085      -0.03044511      -0.02934566 </v>
   <v>      -0.19905448       0.02460799       0.14600635 </v>
   <v>      -0.12284866       0.02540188      -0.01745010 </v>
   <v>       0.21566551       0.65772908       0.17073577 </v>
   <v>       0.15555827      -0.01244328       0.13867618 </v>
   <v>       0.12105977      -0.07005083      -0.00520638 </v>
   <v>      -0.02668164       0.00224371      -0.11352868 </v>
   <v>      -0.08961285      -0.14543083       0.00293128 </v>
   <v>       0.06481758      -0.10555510      -0.04249558 </v>
   <v>      -0.08251864      -0.00376834      -0.10481471 </v>
   <v>      -0.10752328       0.06259102       0.01470043 </v>
   <v>       0.11440468      -0.07345173      -0.20243434 </v>
   <v>       0.20967142       0.14144285      -0.09437796 </v>
   <v>      -0.08346608       0.08246907      -0.09938202 </v>
   <v>       0.11396554       0.01549012       0.18627815 </v>
   <v>       0.08612388       0.03693999      -0.11543988 </v>
   <v>      -0.14633205       0.12540018       0.04806651 </v>
   <v>      -0.19708267       0.13360219      -0.16423993 </v>
   <v>      -0.07599456      -0.07758521       0.65300871 </v>
   <v>       0.06846259       0.06213209       2.09209027 </v>
   <v>      -0.08367354      -0.02327681       0.14610016 </v>
   <v>      -0.75896507      -0.69134693       1.30673341 </v>
   <v>       0.53968817       0.04143527      -1.19934964 </v>
   <v>      -0.05175432      -0.03726306      -0.19516560 </v>
   <v>      -0.02533737       0.21659163      -0.86020431 </v>
   <v>      -0.01313102       0.02731099       0.06586210 </v>
   <v>       0.14863201      -0.17172578       0.51258984 </v>
   <v>       0.23957549       0.09351789       2.09117882 </v>
   <v>      -0.43406947       0.70276069       0.49128151 </v>
   <v>      -0.31867190      -0.28396896       1.24649320 </v>
   <v>       0.57430307       0.17612471      -1.55062807 </v>
   <v>      -0.21368584       0.19926456      -0.55722778 </v>
   <v>      -0.07662523       0.08986997      -1.28723019 </v>
   <v>       0.28204505      -0.14582062       0.11022815 </v>
   <v>      -0.06645444      -0.03836144      -0.21436227 </v>
   <v>       0.11107859       0.19501080       0.23590235 </v>
   <v>       0.14541091       0.16419803      -0.09346060 </v>
   <v>       0.04818096       0.13626712       0.12373073 </v>
   <v>      -0.03931786      -0.00623000       0.04765870 </v>
   <v>       0.12351924       0.06779610       0.14002616 </v>
   <v>       0.05847422       0.02616158       0.00474327 </v>
   <v>      -0.19446088       0.00508913       0.06939381 </v>
   <v>       0.04485197      -0.10925155      -0.15153487 </v>
   <v>       0.47573304      -0.32840249       0.11345311 </v>
   <v>       0.02304440      -0.02674074       0.01613902 </v>
   <v>      -0.03020070      -0.08343025      -0.07113363 </v>
   <v>      -0.03908071      -0.07422306      -0.10069252 </v>
   <v>       0.04113074       0.01780276      -0.25485501 </v>
   <v>      -0.08764948      -0.01295938       0.02372089 </v>
   <v>      -0.29098750      -0.12977750       0.02282020 </v>
   <v>      -0.02777951       0.02450208      -0.12601610 </v>
   <v>      -0.02246417       0.17182846      -0.24425990 </v>
   <v>       0.09900401       0.14259388      -0.05095587 </v>
   <v>      -0.09935006      -0.00576317      -0.05549304 </v>
   <v>      -0.02202126      -0.05324371       0.03759690 </v>
   <v>      -0.07192100       0.04030251       0.08030538 </v>
   <v>      -0.04598569       0.06649717       0.01827632 </v>
   <v>       0.04508443      -0.18040242      -0.10809880 </v>
   <v>      -0.08673310      -0.10642217      -0.02438052 </v>
   <v>      -0.10896165       0.20049867       0.05462223 </v>
   <v>       0.03463171      -0.02653004       0.13557242 </v>
   <v>       0.06980061       0.02272920      -0.06310704 </v>
   <v>      -0.11510948       0.01679237       0.02077985 </v>
   <v>       0.24111863       0.10590268       0.02858695 </v>
   <v>      -0.14840873       0.09613061      -0.03963467 </v>
   <v>      -0.03292035       0.16861500      -0.12925861 </v>
   <v>       0.66626638      -0.89665331       0.44216450 </v>
   <v>      -0.30688871      -0.90276182      -1.01818703 </v>
   <v>       1.11178171      -0.54620863       0.26263751 </v>
   <v>      -0.20766102      -0.42500161      -1.29310644 </v>
   <v>      -0.25705843       0.34143833      -0.37960375 </v>
   <v>       0.14881527       1.08974425       0.34823646 </v>
   <v>       0.41889690       0.85351077      -1.78742230 </v>
   <v>      -0.33944164       0.86430854       0.78488235 </v>
   <v>       0.44830586      -0.92778054       0.36868600 </v>
   <v>      -0.22003589      -1.01905615      -1.05524311 </v>
   <v>       0.14069017      -0.11894461       0.09182937 </v>
   <v>      -0.10342137      -0.43179608      -1.09279657 </v>
   <v>      -0.22286519       0.39656108      -0.24724522 </v>
   <v>       0.23266031       1.00946802       0.24185567 </v>
   <v>       0.29885749       1.13540959      -1.80843344 </v>
   <v>       0.14906484       0.29962509       0.91074444 </v>
   <v>      -0.03073846      -0.18177946       0.07344722 </v>
   <v>      -0.09767191      -0.01743261       0.01857624 </v>
   <v>       0.00861195       0.16145954       0.03202412 </v>
   <v>      -0.23962291      -0.12074296      -0.27909926 </v>
   <v>       0.04642554      -0.13434766      -0.22155386 </v>
   <v>       0.07360389      -0.01525461       0.08361114 </v>
   <v>      -0.05060381       0.01422657       0.04087072 </v>
   <v>      -0.30596579      -0.21410284      -0.00482278 </v>
   <v>      -0.04466933       0.05051592       0.25810665 </v>
   <v>      -0.01781381      -0.30215686      -1.49115516 </v>
   <v>      -0.05983152       0.04609340       0.00510942 </v>
   <v>       0.01235633       0.05345345      -0.18277810 </v>
   <v>       0.04584144       0.00872114       0.10600567 </v>
   <v>       0.03715178       0.25858813      -0.03894601 </v>
   <v>       0.12623919      -0.04910178       0.06299425 </v>
   <v>      -0.11102701       0.09714096      -0.09090685 </v>
   <v>      -0.03441003      -0.06520824       0.15349613 </v>
   <v>      -0.02179597      -0.05777949      -0.20070485 </v>
   <v>       0.06427337       0.16927200       0.01056753 </v>
   <v>      -0.93413158       0.30632963      -1.12090005 </v>
   <v>       0.04748384      -0.14178930      -0.09385648 </v>
   <v>       0.04606429       0.01685460      -0.08281671 </v>
   <v>      -0.01290096       0.03850496       0.02099395 </v>
   <v>       0.32723931       0.14059521      -1.14430134 </v>
   <v>      -0.02710403      -0.02374944       0.09721190 </v>
   <v>       0.00469550       0.35301562      -0.03802654 </v>
   <v>      -0.01562844       0.05149601      -0.09235226 </v>
   <v>       0.01539158       0.00015219      -0.10346964 </v>
   <v>       0.02211753      -0.05344134       0.11682407 </v>
   <v>       0.11777919       0.24130541      -0.02938314 </v>
   <v>       0.05229146      -0.08521528      -0.00104398 </v>
   <v>      -0.11314101       0.05236332      -0.11478458 </v>
   <v>      -0.08495962       0.18807741       0.25922582 </v>
   <v>       0.07971523       0.48459636      -0.21224703 </v>
   <v>       0.41071954      -0.42611822       0.32724877 </v>
   <v>       0.46239431      -0.13256121       0.38531630 </v>
   <v>      -0.29571670      -0.25577440       0.75768735 </v>
   <v>       0.27030846      -0.56573644       0.65014355 </v>
   <v>      -0.29264513      -0.23299438       0.89546992 </v>
   <v>       0.12425085      -0.03538297       0.15141473 </v>
   <v>      -0.07099402      -0.08652087       0.04468236 </v>
   <v>      -0.03993141      -0.03479188       0.09949880 </v>
   <v>       0.02583469       0.05770531       0.08353814 </v>
   <v>      -0.01387126      -0.05108234       0.26668450 </v>
   <v>       0.09704627       0.10357505      -0.07415010 </v>
  </varray>
  <varray name="stress" >
   <v>     -34.35228008      -0.67858179      -0.21953731 </v>
   <v>      -0.67607121     -28.07700944       2.73808211 </v>
   <v>      -0.21986420       2.73683204      -8.64624572 </v>
  </varray>
  <energy>
   <i name="e_fr_energy">  -1248.29273185</i>
   <i name="e_wo_entrp">  -1248.30129070</i>
   <i name="e_0_energy">      0.02567654</i>
  </energy>
 </calculation>
 <calculation>
  <scstep>
   <time name="diag">   24.37   24.37</time>
   <time name="diis">   53.57   53.57</time>
   <time name="orth">    6.10    6.09</time>
   <time name="total">   97.81   97.81</time>
   <energy>
    <i name="alphaZ">   5281.13321127</i>
    <i name="ewald"> 918454.34637595</i>
    <i name="hartreedc">****************</i>
    <i name="XCdc">   5442.11894363</i>
    <i name="pawpsdc"> 139472.01913709</i>
    <i name="pawaedc">-142706.29417353</i>
    <i name="eentropy">      0.02967417</i>
    <i name="bandstr"> -26527.03037586</i>
    <i name="atom"> 189601.87055415</i>
    <i name="e_fr_energy">  -1250.06115376</i>
    <i name="e_wo_entrp">  -1250.09082793</i>
    <i name="e_0_energy">  -1250.07104515</i>
   </energy>
  </scstep>
  <scstep>
   <time name="diag">   24.17   24.16</time>
   <time name="diis">   54.20   54.20</time>
   <time name="orth">    6.03    6.03</time>
   <time name="total">   98.25   98.26</time>
   <energy>
    <i name="e_fr_energy">  -1302.37214844</i>
    <i name="e_wo_entrp">  -1302.37493952</i>
    <i name="e_0_energy">  -1302.37307880</i>
   </energy>
  </scstep>
  <scstep>
   <time name="diag">   25.00   25.00</time>
   <time name="diis">   56.16   56.15</time>
   <time name="orth">    6.34    6.34</time>
   <time name="total">  101.49  101.51</time>
   <energy>
    <i name="e_fr_energy">  -1251.07119784</i>
    <i name="e_wo_entrp">  -1251.07000745</i>
    <i name="e_0_energy">  -1251.07080105</i>
   </energy>
  </scstep>
  <scstep>
   <time name="diag">   24.76   24.76</time>
   <time name="diis">   54.35   54.35</time>
   <time name="orth">    6.12    6.13</time>
   <time name="total">   99.06   99.07</time>
   <energy>
    <i name="e_fr_energy">  -1252.15089826</i>
    <i name="e_wo_entrp">  -1252.16434645</i>
    <i name="e_0_energy">  -1252.15538099</i>
   </energy>
  </scstep>
  <scstep>
   <time name="diag">   24.98   24.98</time>
   <time name="diis">   56.34   56.34</time>
   <time name="orth">    6.38    6.38</time>
   <time name="total">  101.86  101.86</time>
   <energy>
    <i name="e_fr_energy">  -1255.46606069</i>
    <i name="e_wo_entrp">  -1255.44530078</i>
    <i name="e_0_energy">  -1255.45914072</i>
   </energy>
  </scstep>
  <scstep>
   <time name="diag">   25.08   25.09</time>
   <time name="diis">   54.86   54.88</time>
   <time name="orth">    6.65    6.65</time>
   <time name="total">  101.54  101.60</time>
   <energy>
    <i name="e_fr_energy">  -1249.99184141</i>
    <i name="e_wo_entrp">  -1250.01982355</i>
    <i name="e_0_energy">  -1250.00116879</i>
   </energy>
  </scstep>
  <scstep>
   <time name="diag">   24.16   24.16</time>
   <time name="diis">   53.97   53.96</time>
   <time name="orth">    6.16    6.17</time>
   <time name="total">   98.42   98.46</time>
   <energy>
    <i name="e_fr_energy">  -1249.76819369</i>
    <i name="e_wo_entrp">  -1249.80710501</i>
    <i name="e_0_energy">  -1249.78116413</i>
   </energy>
  </scstep>
  <scstep>
   <time name="diag">   24.21   24.21</time>
   <time name="diis">   54.44   54.44</time>
   <time name="orth">    6.32    6.31</time>
[...]
    <v>       0.40694132       0.71837755       0.32555711 </v>
    <v>       0.17877722       0.62942068       0.26356002 </v>
    <v>       0.18400732       0.66181621       0.40979851 </v>
    <v>       0.91155560       0.70087676       0.19235101 </v>
    <v>       0.92881571       0.71210835       0.32740187 </v>
    <v>       0.69527128       0.60976055       0.26679445 </v>
    <v>       0.68761604       0.66462790       0.40226189 </v>
    <v>       0.41542923       0.93666002       0.24327164 </v>
    <v>       0.46072196       0.94386343       0.40050209 </v>
    <v>       0.16347316       0.89275464       0.20887748 </v>
    <v>       0.20684495       0.88388837       0.33496537 </v>
    <v>       0.92648354       0.96367402       0.25938217 </v>
    <v>       0.95079489       0.94844975       0.40890369 </v>
    <v>       0.64080037       0.85662809       0.19253621 </v>
    <v>       0.70375972       0.91274934       0.32788909 </v>
    <v>       0.39558544       0.60857131       0.49628429 </v>
    <v>       0.51225852       0.63013979       0.49613259 </v>
    <v>       0.58769367       0.55003293       0.50911470 </v>
    <v>       0.54697706       0.45232205       0.52079907 </v>
    <v>       0.43194620       0.43376021       0.51933739 </v>
    <v>       0.35547884       0.51045909       0.50702773 </v>
    <v>       0.70219013       0.56571815       0.51147674 </v>
    <v>       0.33726625       0.67159085       0.48931948 </v>
    <v>       0.54285368       0.70908179       0.49251841 </v>
    <v>       0.60714080       0.39322801       0.53000814 </v>
    <v>       0.40113992       0.35716932       0.52837967 </v>
    <v>       0.26599971       0.49474952       0.50573691 </v>
    <v>       0.72230664       0.62928160       0.49511405 </v>
   </varray>
  </structure>
  <varray name="forces" >
   <v>      -0.16730871       0.33022716      -2.11914604 </v>
   <v>       0.48740125      -0.36202152       1.15522389 </v>
   <v>      -0.11918782      -0.50824204       0.15123938 </v>
   <v>      -0.58379646       0.12228722       0.84415370 </v>
   <v>      -0.32328270      -0.07558998       1.65749002 </v>
   <v>      -0.25277586      -0.06907847      -1.36796884 </v>
   <v>       0.33895831      -0.33830131       0.54923241 </v>
   <v>      -0.02294182       0.24097256      -0.15776234 </v>
   <v>      -0.13240783       0.30325128      -2.07565760 </v>
   <v>       0.48480996      -0.35221522       1.15717340 </v>
   <v>      -0.24820700      -0.51046226       0.13885043 </v>
   <v>      -0.58173633       0.12604873       0.82576539 </v>
   <v>      -0.33514499      -0.07138561       1.64236407 </v>
   <v>      -0.31908809       0.11661226      -1.36357868 </v>
   <v>       0.33174546      -0.34556528       0.60214511 </v>
   <v>      -0.11039814       0.24328285      -0.11878762 </v>
   <v>       0.02081665       0.09892711       0.04031437 </v>
   <v>       0.14192899       0.08144194       0.00952867 </v>
   <v>      -0.26526511      -0.05460877       0.15471393 </v>
   <v>      -0.11261546      -0.01819891      -0.02413673 </v>
   <v>      -0.02162373       0.01793820      -0.04090395 </v>
   <v>       0.08706089       0.00720334      -0.04056258 </v>
   <v>       0.04865841      -0.05566077      -0.07946549 </v>
   <v>       0.09037655       0.00175992       0.07202041 </v>
   <v>       0.10624472       0.03704983      -0.02226473 </v>
   <v>       0.14537587       0.17586313      -0.01664603 </v>
   <v>      -0.15661215      -0.00432230       0.00863243 </v>
   <v>       0.02263288      -0.04098229       0.28173443 </v>
   <v>      -0.20611819       0.14248635      -0.07264837 </v>
   <v>       0.05890024      -0.07269898       0.02419056 </v>
   <v>       0.05427530       0.04456639       0.06879436 </v>
   <v>      -0.01529210       0.00786959       0.09726389 </v>
   <v>      -0.04482707       0.12631024       0.02195520 </v>
   <v>      -0.08248615       0.08863398       0.01547431 </v>
   <v>      -0.16486205      -0.09142905       0.06389033 </v>
   <v>       0.21626217       0.07388596      -0.01714851 </v>
   <v>       0.07256248      -0.02053440      -0.04741578 </v>
   <v>      -0.10666184       0.06245616       0.11683927 </v>
   <v>       0.13595942       0.07199359      -0.10704704 </v>
   <v>       0.03951936      -0.06699492       0.05751042 </v>
   <v>       0.13328333       0.03608699      -0.02557660 </v>
   <v>       0.19431008       0.11870791       0.02957129 </v>
   <v>      -0.02261057      -0.00178303       0.03138607 </v>
   <v>      -0.12985794       0.11278058      -0.17524630 </v>
   <v>      -0.03480452       0.10791638      -0.04182307 </v>
   <v>       0.00959073      -0.12639074       0.14765742 </v>
   <v>       0.06639148       0.04573021       0.01491995 </v>
   <v>      -0.00822253      -0.03194219      -0.00171234 </v>
   <v>       0.01826323      -0.03518364       0.48068622 </v>
   <v>       0.24391366       0.18673490       1.96313429 </v>
   <v>      -0.60468077       0.46723503       0.32467440 </v>
   <v>      -0.49382113      -0.59589751       1.15436106 </v>
   <v>      -0.12491570       0.05544302      -0.43322387 </v>
   <v>       0.04352640       0.49374726      -0.15177642 </v>
   <v>       0.43866645      -0.18481858      -0.26527538 </v>
   <v>       0.23697677       0.04019138       0.01367074 </v>
   <v>       0.04470188       0.03872947       0.48000366 </v>
   <v>       0.22671079       0.18488968       1.95892192 </v>
   <v>      -0.61943301       0.49359396       0.29117173 </v>
   <v>      -0.49327098      -0.59931500       1.13563597 </v>
   <v>      -0.01844961       0.02720567      -0.65011695 </v>
   <v>       0.06075572       0.43833226      -0.13749182 </v>
   <v>       0.48420842      -0.27878547      -0.13329489 </v>
   <v>       0.26770735       0.07428243      -0.00654077 </v>
   <v>       0.07887610       0.03608257      -0.10147150 </v>
   <v>       0.13735949       0.03925830      -0.10332220 </v>
   <v>       0.16781910       0.03423055      -0.07870404 </v>
   <v>       0.00875889       0.14762000      -0.06626090 </v>
   <v>       0.02883642       0.04814973       0.02065734 </v>
   <v>       0.10139055      -0.00166865      -0.02730192 </v>
   <v>       0.03352975       0.01200584       0.01074747 </v>
   <v>      -0.03217889      -0.02756239      -0.01448021 </v>
   <v>      -0.02126012       0.10541056      -0.12407837 </v>
   <v>       0.14076280      -0.09153900      -0.14122567 </v>
   <v>      -0.12295831       0.21757085      -0.03542814 </v>
   <v>       0.03345832       0.01123639      -0.07506716 </v>
   <v>      -0.11022665      -0.06266248       0.04645599 </v>
   <v>       0.10956047      -0.09251855      -0.03055190 </v>
   <v>      -0.11524784       0.01078169       0.16130745 </v>
   <v>      -0.05977353      -0.01167534      -0.12317248 </v>
   <v>       0.10314165       0.17522276      -0.00070529 </v>
   <v>      -0.04949274      -0.16726167      -0.08441238 </v>
   <v>       0.15833223      -0.10094346      -0.13011707 </v>
   <v>      -0.06216347       0.10918529      -0.14835130 </v>
   <v>       0.00072374       0.11698096      -0.07668540 </v>
   <v>      -0.00791795       0.09781669      -0.10313234 </v>
   <v>      -0.02795689      -0.04859375      -0.01431229 </v>
   <v>      -0.12810809       0.00992573      -0.03161064 </v>
   <v>      -0.10672779       0.10495883       0.01874649 </v>
   <v>      -0.02661329       0.11174068       0.09571640 </v>
   <v>      -0.00097839      -0.15171277       0.13758754 </v>
   <v>       0.11060270      -0.10349531      -0.04413653 </v>
   <v>      -0.13673562      -0.02007869       0.00643930 </v>
   <v>      -0.00091744      -0.04512548      -0.03595339 </v>
   <v>      -0.09842533       0.08577088       0.07201107 </v>
   <v>      -0.07825512       0.02811308      -0.03930391 </v>
   <v>       0.28984545      -0.65696858       0.35572685 </v>
   <v>      -0.29380774      -1.06541959      -1.27399501 </v>
   <v>       0.44103449      -0.20077298      -0.01646022 </v>
   <v>      -0.49049714      -0.71539095      -1.17569348 </v>
   <v>      -0.24226187       0.19940815      -0.27864290 </v>
   <v>       0.10603771       0.68416499       0.03179367 </v>
   <v>       0.37485749       0.79360524      -1.98309549 </v>
   <v>      -0.02143943       0.46718641       0.87838572 </v>
   <v>       0.30431643      -0.66316809       0.33665342 </v>
   <v>      -0.40073899      -0.95259634      -1.12557657 </v>
   <v>       0.45401435      -0.21343968      -0.00529515 </v>
   <v>      -0.42806289      -0.64595683      -1.12219616 </v>
   <v>      -0.13933087       0.13660381      -0.29147427 </v>
   <v>       0.12537203       0.68948710       0.01510651 </v>
   <v>       0.38631446       0.81920560      -1.92567765 </v>
   <v>      -0.06771034       0.45553109       0.83726399 </v>
   <v>       0.07576156       0.03668775       0.00808799 </v>
   <v>       0.25159353       0.01939913      -0.01474360 </v>
   <v>       0.13419220      -0.05281940      -0.04255324 </v>
   <v>       0.01467489       0.03349150       0.08198338 </v>
   <v>       0.06815251       0.10192610       0.06221886 </v>
   <v>       0.02524799      -0.20585266      -0.00090761 </v>
   <v>      -0.04145841       0.06082143      -0.00011415 </v>
   <v>       0.02819791      -0.13526810       0.05315589 </v>
   <v>       0.08293252       0.02564665      -0.03168537 </v>
   <v>       0.08002460       0.03635975       0.04744233 </v>
   <v>      -0.00725152      -0.03877490      -0.18327470 </v>
   <v>       0.10985917      -0.09020652       0.05488645 </v>
   <v>       0.03969442      -0.02697763      -0.11108766 </v>
   <v>      -0.04965874      -0.13709609      -0.06378247 </v>
   <v>      -0.03918498       0.02920439       0.01820747 </v>
   <v>      -0.03069596       0.08322795       0.11301605 </v>
   <v>       0.08609411       0.03862881       0.03385114 </v>
   <v>      -0.00201431       0.05634551      -0.12137198 </v>
   <v>       0.03594628       0.08186844      -0.02301670 </v>
   <v>       0.09046787      -0.05885480      -0.19432222 </v>
   <v>       0.05825185       0.00090766       0.06834696 </v>
   <v>       0.16731685      -0.05248360       0.00655899 </v>
   <v>       0.07226923       0.00850991       0.08353865 </v>
   <v>      -0.05591704      -0.05233793      -0.05854353 </v>
   <v>      -0.00369881      -0.01374834      -0.00803829 </v>
   <v>       0.02327325       0.07663027       0.01759670 </v>
   <v>      -0.05288408      -0.03865458      -0.06209198 </v>
   <v>      -0.00410023      -0.06355554       0.00197525 </v>
   <v>      -0.00203571      -0.04390464      -0.11849612 </v>
   <v>       0.05708677      -0.01136870      -0.02195139 </v>
   <v>       0.02846984       0.05722331       0.05573554 </v>
   <v>      -0.13301757      -0.03646924       0.02364319 </v>
   <v>       0.20651173       0.37055524      -0.07347559 </v>
   <v>      -0.04011570      -0.45409413       0.06952146 </v>
   <v>       0.33249626       0.31045002      -0.06350791 </v>
   <v>       0.27897666       0.47006601      -0.12462454 </v>
   <v>      -0.31286431      -0.30044955       0.11610096 </v>
   <v>       0.14555497       0.05298675       0.01098490 </v>
   <v>      -0.33562660       0.06096484      -0.10499658 </v>
   <v>      -0.04176816      -0.05351066      -0.00791670 </v>
   <v>      -0.00296483       0.04895299       0.00994279 </v>
   <v>       0.10063827      -0.19622369       0.08606041 </v>
   <v>      -0.01206321       0.00937292      -0.01959620 </v>
   <v>      -0.18870200      -0.05029459       0.03345297 </v>
   <v>      -0.09260982      -0.19625189       0.10800655 </v>
  </varray>
  <varray name="stress" >
   <v>     -36.66441710       1.99533524       2.40886778 </v>
   <v>       1.99642510     -39.76217879       2.32783452 </v>
   <v>       2.40949837       2.32944789     -22.01494661 </v>
  </varray>
  <energy>
   <i name="e_fr_energy">  -1256.26912476</i>
   <i name="e_wo_entrp">  -1256.28556450</i>
   <i name="e_0_energy">      0.04931920</i>
  </energy>
 </calculation>
 <calculation>
  <scstep>
   <time name="diag">   24.16   24.16</time>
   <time name="diis">   53.43   53.43</time>
   <time name="orth">    6.10    6.10</time>
   <time name="total">   97.82   97.82</time>
   <energy>
    <i name="alphaZ">   5281.13321127</i>
    <i name="ewald"> 920816.89997493</i>
    <i name="hartreedc">****************</i>
    <i name="XCdc">   5437.37070758</i>
    <i name="pawpsdc"> 139451.70769075</i>
    <i name="pawaedc">-142677.45864389</i>
    <i name="eentropy">      0.04729465</i>
    <i name="bandstr"> -26936.93765892</i>
    <i name="atom"> 189601.87055415</i>
    <i name="e_fr_energy">  -1259.77463333</i>
    <i name="e_wo_entrp">  -1259.82192798</i>
    <i name="e_0_energy">  -1259.79039821</i>
   </energy>
  </scstep>
  <scstep>
   <time name="diag">   24.85   24.85</time>
   <time name="diis">   55.24   55.23</time>
   <time name="orth">    6.21    6.21</time>
   <time name="total">  100.53  100.66</time>
   <energy>
    <i name="e_fr_energy">  -1271.68354395</i>
    <i name="e_wo_entrp">  -1271.73082213</i>
    <i name="e_0_energy">  -1271.69930334</i>
   </energy>
  </scstep>
  <scstep>
   <time name="diag">   24.12   24.12</time>
   <time name="diis">   56.86   56.86</time>
   <time name="orth">    6.21    6.21</time>
   <time name="total">  101.45  101.53</time>
   <energy>
    <i name="e_fr_energy">  -1260.88476656</i>
    <i name="e_wo_entrp">  -1260.88272670</i>
    <i name="e_0_energy">  -1260.88408661</i>
   </energy>
  </scstep>
  <scstep>
   <time name="diag">   24.34   24.34</time>
   <time name="diis">   55.91   55.91</time>
   <time name="orth">    6.33    6.33</time>
   <time name="total">  100.86  100.88</time>
   <energy>
    <i name="e_fr_energy">  -1256.95913694</i>
    <i name="e_wo_entrp">  -1257.00006908</i>
    <i name="e_0_energy">  -1256.97278098</i>
   </energy>
  </scstep>
  <scstep>
   <time name="diag">   24.95   24.95</time>
   <time name="diis">   56.09   56.09</time>
   <time name="orth">    6.56    6.57</time>
   <time name="total">  101.92  101.97</time>
   <energy>
    <i name="e_fr_energy">  -1256.51995610</i>
    <i name="e_wo_entrp">  -1256.55321518</i>
    <i name="e_0_energy">  -1256.53104246</i>
   </energy>
  </scstep>
  <scstep>
   <time name="diag">   24.16   24.16</time>
   <time name="diis">   61.05   61.05</time>
   <time name="orth">    6.04    6.03</time>
   <time name="total">  105.25  105.31</time>
   <energy>
    <i name="e_fr_energy">  -1256.44544323</i>
    <i name="e_wo_entrp">  -1256.49434379</i>
    <i name="e_0_energy">  -1256.46174342</i>
   </energy>
  </scstep>
  <scstep>
   <time name="diag">   24.26   24.26</time>
   <time name="diis">   59.11   59.11</time>
   <time name="orth">    6.10    6.10</time>
   <time name="total">  103.81  103.93</time>
   <energy>
    <i name="e_fr_energy">  -1256.34853272</i>
    <i name="e_wo_entrp">  -1256.39284063</i>
    <i name="e_0_energy">  -1256.36330203</i>
   </energy>
  </scstep>
  <scstep>
   <time name="diag">   24.28   24.28</time>
   <time name="diis">   58.98   58.98</time>
   <time name="orth">    6.16    6.17</time>
   <time name="total">  103.74  103.79</time>
   <energy>
    <i name="e_fr_energy">  -1256.33574514</i>
    <i name="e_wo_entrp">  -1256.38762936</i>
    <i name="e_0_energy">  -1256.35303988</i>
   </energy>
  </scstep>
  <scstep>
   <time name="diag">   24.01   24.02</time>
   <time name="diis">   53.77   53.77</time>
   <time name="orth">    6.05    6.05</time>
   <time name="total">   97.96   98.00</time>
   <energy>
    <i name="e_fr_energy">  -1256.33239934</i>
    <i name="e_wo_entrp">  -1256.38032037</i>
    <i name="e_0_energy">  -1256.34837302</i>
   </energy>
  </scstep>
  <scstep>
   <time name="diag">   24.31   24.31</time>
   <time name="diis">   53.81   53.81</time>
   <time name="orth">    6.22    6.23</time>
   <time name="total">   98.69   98.72</time>
   <energy>
    <i name="e_fr_energy">  -1256.33362274</i>
    <i name="e_wo_entrp">  -1256.38148664</i>
    <i name="e_0_energy">  -1256.34957737</i>
   </energy>
  </scstep>
  <scstep>
   <time name="diag">   24.12   24.12</time>
   <time name="diis">   54.15   54.15</time>
   <time name="orth">    6.12    6.12</time>
   <time name="total">   98.51   98.61</time>
   <energy>
    <i name="e_fr_energy">  -1256.32255709</i>
    <i name="e_wo_entrp">  -1256.36940837</i>
    <i name="e_0_energy">  -1256.33817418</i>
   </energy>
  </scstep>
  <scstep>
   <time name="diag">   24.02   24.02</time>
   <time name="diis">   53.60   53.60</time>
   <time name="orth">    6.08    6.07</time>
   <time name="total">   97.74   97.80</time>
   <energy>
    <i name="e_fr_energy">  -1256.31675999</i>
    <i name="e_wo_entrp">  -1256.36500347</i>
    <i name="e_0_energy">  -1256.33284115</i>
   </energy>
  </scstep>
  <scstep>
   <time name="diag">   24.35   24.35</time>
   <time name="diis">   53.52   53.52</time>
   <time name="orth">    6.32    6.33</time>
   <time name="total">   98.94   99.01</time>
   <energy>
    <i name="e_fr_energy">  -1256.31064807</i>
    <i name="e_wo_entrp">  -1256.36170846</i>
    <i name="e_0_energy">  -1256.32766820</i>
   </energy>
  </scstep>
  <scstep>
   <time name="diag">   24.23   24.23</time>
   <time name="diis">   54.58   54.58</time>
   <time name="orth">    6.31    6.31</time>
   <time name="total">   99.35   99.49</time>
   <energy>
    <i name="e_fr_energy">  -1256.30992318</i>
    <i name="e_wo_entrp">  -1256.35960606</i>
    <i name="e_0_energy">  -1256.32648414</i>
   </energy>
  </scstep>
  <scstep>
   <time name="diag">   24.01   24.01</time>
   <time name="diis">   46.42   46.43</time>
   <time name="orth">    6.15    6.15</time>
   <time name="total">   90.76   90.82</time>
   <energy>
    <i name="e_fr_energy">  -1256.30903474</i>
    <i name="e_wo_entrp">  -1256.35861949</i>
    <i name="e_0_energy">  -1256.32556299</i>
   </energy>
  </scstep>
  <scstep>
   <time name="diag">   24.44   24.44</time>
   <time name="diis">   45.75   45.75</time>
   <time name="orth">    6.38    6.38</time>
   <time name="total">   91.41   91.42</time>
   <energy>
    <i name="e_fr_energy">  -1256.30875085</i>
    <i name="e_wo_entrp">  -1256.35856419</i>
    <i name="e_0_energy">  -1256.32535530</i>
   </energy>
  </scstep>
  <scstep>
   <time name="diag">   24.34   24.34</time>
   <time name="diis">   44.66   44.66</time>
   <time name="orth">    6.23    6.23</time>
   <time name="total">   89.73   90.97</time>
   <energy>
    <i name="e_fr_energy">  -1256.30887108</i>
    <i name="e_wo_entrp">  -1256.35848450</i>
    <i name="e_0_energy">  -1256.32540888</i>
   </energy>
  </scstep>
  <scstep>
   <time name="diag">   24.47   24.47</time>
   <time name="diis">   46.06   46.06</time>
   <time name="orth">    6.36    6.36</time>
   <time name="total">   91.71   91.78</time>
   <energy>
    <i name="e_fr_energy">  -1256.30901842</i>
    <i name="e_wo_entrp">  -1256.35869114</i>
    <i name="e_0_energy">  -1256.32557599</i>
   </energy>
  </scstep>
  <scstep>
   <time name="diag">   24.24   24.24</time>
   <time name="diis">   44.55   44.55</time>
   <time name="orth">    6.21    6.21</time>
   <time name="total">   89.27   89.28</time>
   <energy>
    <i name="e_fr_energy">  -1256.30886951</i>
    <i name="e_wo_entrp">  -1256.35856036</i>
    <i name="e_0_energy">  -1256.32543312</i>
   </energy>
  </scstep>
  <scstep>
   <time name="diag">   24.60   24.60</time>
   <time name="diis">   44.93   44.93</time>
   <time name="orth">    6.29    6.29</time>
   <time name="total">   90.07   90.26</time>
   <energy>
    <i name="e_fr_energy">  -1256.30941425</i>
    <i name="e_wo_entrp">  -1256.35900844</i>
    <i name="e_0_energy">  -1256.32594565</i>
   </energy>
  </scstep>
  <scstep>
   <time name="diag">   24.08   24.08</time>
